LAMMPS (27 Feb 2020)
OMP_NUM_THREADS environment is not set. Defaulting to 1 thread. (../comm.cpp:94)
  using 1 OpenMP thread(s) per MPI task
dimension    3
boundary    p p p
units metal

atom_style    atomic

neighbor    2.0 bin
neigh_modify delay 5
#neigh_modify    every 1 delay 0 check yes

# create geometry

lattice        diamond 4
Lattice spacing in x,y,z = 4 4 4
region        box block 0 2 0 2 0 6
create_box    1 box
Created orthogonal box = (0 0 0) to (8 8 24)
  1 by 1 by 1 MPI processor grid
create_atoms    1 box
Created 192 atoms
  create_atoms CPU = 0.000996828 secs

mass        1 28.0855

# Stillinger-Weber potential for Si
pair_style sw
pair_coeff * * Si.sw Si
Reading potential file Si.sw with DATE: 2007-06-11

timestep 0.01

#Print
thermo          100
thermo_style custom step temp pe etotal press vol density

# minimize
dump 101 all xyz 10 si_min.xyz
fix 1 all box/relax iso 0.0
minimize 1.0e-6 1.0e-8 1000000 10000000
WARNING: Using 'neigh_modify every 1 delay 0 check yes' setting during minimization (../min.cpp:190)
Neighbor list info ...
  update every 1 steps, delay 0 steps, check yes
  max neighbors/atom: 2000, page size: 100000
  master list distance cutoff = 5.77118
  ghost atom cutoff = 5.77118
  binsize = 2.88559, bins = 3 3 9
  1 neighbor lists, perpetual/occasional/extra = 1 0 0
  (1) pair sw, perpetual
      attributes: full, newton on
      pair build: full/bin/atomonly
      stencil: full/bin/3d
      bin: standard
Per MPI rank memory allocation (min/avg/max) = 5.245 | 5.245 | 5.245 Mbytes
Step Temp PotEng TotEng Press Volume Density 
       0            0    3935.8479    3935.8479     21641420         1536    5.8296332 
     100            0    3350.8625    3350.8625     18714891    1582.5423    5.6581846 
     200            0    2834.6304    2834.6304     16205398    1630.0155    5.4933936 
     300            0    2378.0595    2378.0595     14081900    1678.4287    5.3349402 
     400            0    1972.5474    1972.5474     12300134    1727.7911    5.1825227 
     500            0    1610.4753    1610.4753     10802870     1778.112    5.0358564 
     600            0    1285.6816    1285.6816    9524013.2    1829.4006    4.8946725 
     700            0    993.75105    993.75105    8398100.6     1881.666    4.7587172 
     800            0     731.9283     731.9283    7373868.2    1934.9176    4.6277508 
     900            0    498.57654    498.57654    6424738.1    1989.1645    4.5015465 
    1000            0    292.42047    292.42047    5546117.5     2044.416    4.3798897 
    1100            0    112.05172    112.05172      4740853    2100.6812    4.2625776 
    1200            0   -44.137032   -44.137032    4009967.2    2157.9694    4.1494178 
    1300            0   -177.88946   -177.88946    3353170.3    2216.2898    4.0402283 
    1400            0   -291.06257   -291.06257    2769796.6    2275.6516    3.9348364 
    1500            0   -385.61443   -385.61443    2258794.9     2336.064    3.8330785 
    1600            0   -463.58787   -463.58787    1818631.3    2397.5363    3.7347993 
    1700            0   -527.08841   -527.08841    1447164.8    2460.0776    3.6398513 
    1800            0   -578.25457   -578.25457    1141480.6    2523.6972    3.5480948 
    1900            0    -619.2179    -619.2179    897671.04    2588.4042    3.4593966 
    2000            0   -652.04992   -652.04992    710567.73     2654.208    3.3736303 
    2100            0   -678.69325   -678.69325    573464.02    2721.1177     3.290676 
    2200            0   -700.87741   -700.87741     477931.1    2789.1425    3.2104192 
    2300            0   -720.02568   -720.02568    413914.23    2858.2917    3.1327511 
    2400            0   -737.17066   -737.17066    370364.55    2928.5745    3.0575684 
    2500            0   -752.90862   -752.90862    336611.16         3000    2.9847722 
    2600            0   -767.42975   -767.42975    304353.49    3072.5775    2.9142687 
    2700            0   -780.64482   -780.64482    269478.17    3146.3163    2.8459684 
    2800            0    -792.3768    -792.3768     232276.3    3221.2255    2.7797857 
    2900            0   -802.52085   -802.52085    195250.95    3297.3143    2.7156394 
    3000            0    -811.0817    -811.0817    160211.95     3374.592    2.6534516 
    3100            0    -818.1173    -818.1173    127539.04    3453.0678    2.5931482 
    3200            0   -823.69281   -823.69281     97111.31    3532.7508    2.5346584 
    3300            0   -827.87064   -827.87064    68776.335    3613.6504    2.4779145 
    3400            0   -830.71009   -830.71009    42393.038    3695.7757    2.4228517 
    3500            0    -832.2676    -832.2676    17831.226     3779.136    2.3694084 
    3571            0   -832.62478   -832.62478    1431.7956    3839.0765    2.3324142 
Loop time of 11.6213 on 1 procs for 3571 steps with 192 atoms

98.4% CPU use with 1 MPI tasks x 1 OpenMP threads

Minimization stats:
  Stopping criterion = energy tolerance
  Energy initial, next-to-last, final = 
         3935.84791845     -832.623965847      -832.62478384
  Force two-norm initial, final = 62242.6 7.58415
  Force max component initial, final = 62242.6 7.58415
  Final line search alpha, max atom move = 1.1395e-05 8.64213e-05
  Iterations, force evaluations = 3571 3571

MPI task timing breakdown:
Section |  min time  |  avg time  |  max time  |%varavg| %total
---------------------------------------------------------------
Pair    | 11.228     | 11.228     | 11.228     |   0.0 | 96.62
Neigh   | 0.00099707 | 0.00099707 | 0.00099707 |   0.0 |  0.01
Comm    | 0.012961   | 0.012961   | 0.012961   |   0.0 |  0.11
Output  | 0.17256    | 0.17256    | 0.17256    |   0.0 |  1.48
Modify  | 0          | 0          | 0          |   0.0 |  0.00
Other   |            | 0.2068     |            |       |  1.78

Nlocal:    192 ave 192 max 192 min
Histogram: 1 0 0 0 0 0 0 0 0 0
Nghost:    1009 ave 1009 max 1009 min
Histogram: 1 0 0 0 0 0 0 0 0 0
Neighs:    0 ave 0 max 0 min
Histogram: 1 0 0 0 0 0 0 0 0 0
FullNghs:  6528 ave 6528 max 6528 min
Histogram: 1 0 0 0 0 0 0 0 0 0

Total # of neighbors = 6528
Ave neighs/atom = 34
Neighbor list builds = 9
Dangerous builds = 0

unfix 1
undump 101

reset_timestep 0

thermo 10
#Relaxation
fix 1 all npt temp 300 300 0.1 iso 0 0 1
run 50
Per MPI rank memory allocation (min/avg/max) = 3.105 | 3.105 | 3.105 Mbytes
Step Temp PotEng TotEng Press Volume Density 
       0            0   -832.62478   -832.62478    1431.7956    3839.0765    2.3324142 
      10 1.571489e-21    -832.6258    -832.6258   -1086.8661    3848.6173    2.3266321 
      20 2.6134035e-21   -832.62714   -832.62714    221.73388    3843.6487    2.3296397 
      30 3.1681566e-21   -832.62651   -832.62651    767.06471    3841.5855    2.3308909 
      40 4.2134521e-21   -832.62484   -832.62484    -1410.543    3849.8502     2.325887 
      50 9.3742484e-21   -832.62489   -832.62489     1399.842     3839.197     2.332341 
Loop time of 0.0309179 on 1 procs for 50 steps with 192 atoms

Performance: 1397.250 ns/day, 0.017 hours/ns, 1617.187 timesteps/s
50.5% CPU use with 1 MPI tasks x 1 OpenMP threads

MPI task timing breakdown:
Section |  min time  |  avg time  |  max time  |%varavg| %total
---------------------------------------------------------------
Pair    | 0.0089753  | 0.0089753  | 0.0089753  |   0.0 | 29.03
Neigh   | 0          | 0          | 0          |   0.0 |  0.00
Comm    | 0          | 0          | 0          |   0.0 |  0.00
Output  | 0.020946   | 0.020946   | 0.020946   |   0.0 | 67.75
Modify  | 0.00099683 | 0.00099683 | 0.00099683 |   0.0 |  3.22
Other   |            | 0          |            |       |  0.00

Nlocal:    192 ave 192 max 192 min
Histogram: 1 0 0 0 0 0 0 0 0 0
Nghost:    1009 ave 1009 max 1009 min
Histogram: 1 0 0 0 0 0 0 0 0 0
Neighs:    0 ave 0 max 0 min
Histogram: 1 0 0 0 0 0 0 0 0 0
FullNghs:  6528 ave 6528 max 6528 min
Histogram: 1 0 0 0 0 0 0 0 0 0

Total # of neighbors = 6528
Ave neighs/atom = 34
Neighbor list builds = 0
Dangerous builds = 0
unfix 1

reset_timestep 0
# Calculate potential energy at different distances
#compute 1 all pressure c_ID
compute test all temp
compute 1 all pressure test

#variable      sigmazz equal c_ID[i]
variable      sigmazz equal c_1
variable        st equal step
variable        index loop 50

#loop starts
label loop
next            index

#change_box all xy final -0.1 z final 0.0 0.5 boundary p p f remap units box \
#change_box all xy scale -0.1 z boundary p p f remap units box
change_box all z final 0 0.1 boundary p p f remap units box
  orthogonal box = (-1.42846 -1.42846 0) to (9.42846 9.42846 0.1)
#change_box all xy final -0.1 z boundary p p f remap units box
#run 0


thermo 10
thermo_style custom step temp pe etotal press vol density
# NVT relaxation
fix 1 all nvt temp 300 300 1

unfix 1

fix 2 all print 100 "${st} ${sigmazz}" append thermo.out screen no title "# step stress "
dump 102 all xyz 100 si_min_relaxation.xyz

run 5000
WARNING: Proc sub-domain size < neighbor skin, could lead to lost atoms (../domain.cpp:936)
Per MPI rank memory allocation (min/avg/max) = 4.21 | 4.21 | 4.21 Mbytes
Step Temp PotEng TotEng Press Volume Density 
       0 9.3742484e-21 2.2293636e+11 2.2293636e+11 4.0430068e+16    11.787257    759.66075 
      10 9.3742484e-21 2.2293636e+11 2.2293636e+11 4.0430068e+16    11.787257    759.66075 
      20 9.3742484e-21 2.2293636e+11 2.2293636e+11 4.0430068e+16    11.787257    759.66075 
      30 9.3742484e-21 2.2293636e+11 2.2293636e+11 4.0430068e+16    11.787257    759.66075 
      40 9.3742484e-21 2.2293636e+11 2.2293636e+11 4.0430068e+16    11.787257    759.66075 
      50 9.3742484e-21 2.2293636e+11 2.2293636e+11 4.0430068e+16    11.787257    759.66075 
      60 9.3742484e-21 2.2293636e+11 2.2293636e+11 4.0430068e+16    11.787257    759.66075 
      70 9.3742484e-21 2.2293636e+11 2.2293636e+11 4.0430068e+16    11.787257    759.66075 
      80 9.3742484e-21 2.2293636e+11 2.2293636e+11 4.0430068e+16    11.787257    759.66075 
      90 9.3742484e-21 2.2293636e+11 2.2293636e+11 4.0430068e+16    11.787257    759.66075 
     100 9.3742484e-21 2.2293636e+11 2.2293636e+11 4.0430068e+16    11.787257    759.66075 
     110 9.3742484e-21 2.2293636e+11 2.2293636e+11 4.0430068e+16    11.787257    759.66075 
     120 9.3742484e-21 2.2293636e+11 2.2293636e+11 4.0430068e+16    11.787257    759.66075 
     130 9.3742484e-21 2.2293636e+11 2.2293636e+11 4.0430068e+16    11.787257    759.66075 
     140 9.3742484e-21 2.2293636e+11 2.2293636e+11 4.0430068e+16    11.787257    759.66075 
     150 9.3742484e-21 2.2293636e+11 2.2293636e+11 4.0430068e+16    11.787257    759.66075 
     160 9.3742484e-21 2.2293636e+11 2.2293636e+11 4.0430068e+16    11.787257    759.66075 
     170 9.3742484e-21 2.2293636e+11 2.2293636e+11 4.0430068e+16    11.787257    759.66075 
     180 9.3742484e-21 2.2293636e+11 2.2293636e+11 4.0430068e+16    11.787257    759.66075 
     190 9.3742484e-21 2.2293636e+11 2.2293636e+11 4.0430068e+16    11.787257    759.66075 
     200 9.3742484e-21 2.2293636e+11 2.2293636e+11 4.0430068e+16    11.787257    759.66075 
     210 9.3742484e-21 2.2293636e+11 2.2293636e+11 4.0430068e+16    11.787257    759.66075 
     220 9.3742484e-21 2.2293636e+11 2.2293636e+11 4.0430068e+16    11.787257    759.66075 
     230 9.3742484e-21 2.2293636e+11 2.2293636e+11 4.0430068e+16    11.787257    759.66075 
     240 9.3742484e-21 2.2293636e+11 2.2293636e+11 4.0430068e+16    11.787257    759.66075 
     250 9.3742484e-21 2.2293636e+11 2.2293636e+11 4.0430068e+16    11.787257    759.66075 
     260 9.3742484e-21 2.2293636e+11 2.2293636e+11 4.0430068e+16    11.787257    759.66075 
     270 9.3742484e-21 2.2293636e+11 2.2293636e+11 4.0430068e+16    11.787257    759.66075 
     280 9.3742484e-21 2.2293636e+11 2.2293636e+11 4.0430068e+16    11.787257    759.66075 
     290 9.3742484e-21 2.2293636e+11 2.2293636e+11 4.0430068e+16    11.787257    759.66075 
     300 9.3742484e-21 2.2293636e+11 2.2293636e+11 4.0430068e+16    11.787257    759.66075 
     310 9.3742484e-21 2.2293636e+11 2.2293636e+11 4.0430068e+16    11.787257    759.66075 
     320 9.3742484e-21 2.2293636e+11 2.2293636e+11 4.0430068e+16    11.787257    759.66075 
     330 9.3742484e-21 2.2293636e+11 2.2293636e+11 4.0430068e+16    11.787257    759.66075 
     340 9.3742484e-21 2.2293636e+11 2.2293636e+11 4.0430068e+16    11.787257    759.66075 
     350 9.3742484e-21 2.2293636e+11 2.2293636e+11 4.0430068e+16    11.787257    759.66075 
     360 9.3742484e-21 2.2293636e+11 2.2293636e+11 4.0430068e+16    11.787257    759.66075 
     370 9.3742484e-21 2.2293636e+11 2.2293636e+11 4.0430068e+16    11.787257    759.66075 
     380 9.3742484e-21 2.2293636e+11 2.2293636e+11 4.0430068e+16    11.787257    759.66075 
     390 9.3742484e-21 2.2293636e+11 2.2293636e+11 4.0430068e+16    11.787257    759.66075 
     400 9.3742484e-21 2.2293636e+11 2.2293636e+11 4.0430068e+16    11.787257    759.66075 
     410 9.3742484e-21 2.2293636e+11 2.2293636e+11 4.0430068e+16    11.787257    759.66075 
     420 9.3742484e-21 2.2293636e+11 2.2293636e+11 4.0430068e+16    11.787257    759.66075 
     430 9.3742484e-21 2.2293636e+11 2.2293636e+11 4.0430068e+16    11.787257    759.66075 
     440 9.3742484e-21 2.2293636e+11 2.2293636e+11 4.0430068e+16    11.787257    759.66075 
     450 9.3742484e-21 2.2293636e+11 2.2293636e+11 4.0430068e+16    11.787257    759.66075 
     460 9.3742484e-21 2.2293636e+11 2.2293636e+11 4.0430068e+16    11.787257    759.66075 
     470 9.3742484e-21 2.2293636e+11 2.2293636e+11 4.0430068e+16    11.787257    759.66075 
     480 9.3742484e-21 2.2293636e+11 2.2293636e+11 4.0430068e+16    11.787257    759.66075 
     490 9.3742484e-21 2.2293636e+11 2.2293636e+11 4.0430068e+16    11.787257    759.66075 
     500 9.3742484e-21 2.2293636e+11 2.2293636e+11 4.0430068e+16    11.787257    759.66075 
     510 9.3742484e-21 2.2293636e+11 2.2293636e+11 4.0430068e+16    11.787257    759.66075 
     520 9.3742484e-21 2.2293636e+11 2.2293636e+11 4.0430068e+16    11.787257    759.66075 
     530 9.3742484e-21 2.2293636e+11 2.2293636e+11 4.0430068e+16    11.787257    759.66075 
     540 9.3742484e-21 2.2293636e+11 2.2293636e+11 4.0430068e+16    11.787257    759.66075 
     550 9.3742484e-21 2.2293636e+11 2.2293636e+11 4.0430068e+16    11.787257    759.66075 
     560 9.3742484e-21 2.2293636e+11 2.2293636e+11 4.0430068e+16    11.787257    759.66075 
     570 9.3742484e-21 2.2293636e+11 2.2293636e+11 4.0430068e+16    11.787257    759.66075 
     580 9.3742484e-21 2.2293636e+11 2.2293636e+11 4.0430068e+16    11.787257    759.66075 
     590 9.3742484e-21 2.2293636e+11 2.2293636e+11 4.0430068e+16    11.787257    759.66075 
     600 9.3742484e-21 2.2293636e+11 2.2293636e+11 4.0430068e+16    11.787257    759.66075 
     610 9.3742484e-21 2.2293636e+11 2.2293636e+11 4.0430068e+16    11.787257    759.66075 
     620 9.3742484e-21 2.2293636e+11 2.2293636e+11 4.0430068e+16    11.787257    759.66075 
     630 9.3742484e-21 2.2293636e+11 2.2293636e+11 4.0430068e+16    11.787257    759.66075 
     640 9.3742484e-21 2.2293636e+11 2.2293636e+11 4.0430068e+16    11.787257    759.66075 
     650 9.3742484e-21 2.2293636e+11 2.2293636e+11 4.0430068e+16    11.787257    759.66075 
     660 9.3742484e-21 2.2293636e+11 2.2293636e+11 4.0430068e+16    11.787257    759.66075 
     670 9.3742484e-21 2.2293636e+11 2.2293636e+11 4.0430068e+16    11.787257    759.66075 
     680 9.3742484e-21 2.2293636e+11 2.2293636e+11 4.0430068e+16    11.787257    759.66075 
     690 9.3742484e-21 2.2293636e+11 2.2293636e+11 4.0430068e+16    11.787257    759.66075 
     700 9.3742484e-21 2.2293636e+11 2.2293636e+11 4.0430068e+16    11.787257    759.66075 
     710 9.3742484e-21 2.2293636e+11 2.2293636e+11 4.0430068e+16    11.787257    759.66075 
     720 9.3742484e-21 2.2293636e+11 2.2293636e+11 4.0430068e+16    11.787257    759.66075 
     730 9.3742484e-21 2.2293636e+11 2.2293636e+11 4.0430068e+16    11.787257    759.66075 
     740 9.3742484e-21 2.2293636e+11 2.2293636e+11 4.0430068e+16    11.787257    759.66075 
     750 9.3742484e-21 2.2293636e+11 2.2293636e+11 4.0430068e+16    11.787257    759.66075 
     760 9.3742484e-21 2.2293636e+11 2.2293636e+11 4.0430068e+16    11.787257    759.66075 
     770 9.3742484e-21 2.2293636e+11 2.2293636e+11 4.0430068e+16    11.787257    759.66075 
     780 9.3742484e-21 2.2293636e+11 2.2293636e+11 4.0430068e+16    11.787257    759.66075 
     790 9.3742484e-21 2.2293636e+11 2.2293636e+11 4.0430068e+16    11.787257    759.66075 
     800 9.3742484e-21 2.2293636e+11 2.2293636e+11 4.0430068e+16    11.787257    759.66075 
     810 9.3742484e-21 2.2293636e+11 2.2293636e+11 4.0430068e+16    11.787257    759.66075 
     820 9.3742484e-21 2.2293636e+11 2.2293636e+11 4.0430068e+16    11.787257    759.66075 
     830 9.3742484e-21 2.2293636e+11 2.2293636e+11 4.0430068e+16    11.787257    759.66075 
     840 9.3742484e-21 2.2293636e+11 2.2293636e+11 4.0430068e+16    11.787257    759.66075 
     850 9.3742484e-21 2.2293636e+11 2.2293636e+11 4.0430068e+16    11.787257    759.66075 
     860 9.3742484e-21 2.2293636e+11 2.2293636e+11 4.0430068e+16    11.787257    759.66075 
     870 9.3742484e-21 2.2293636e+11 2.2293636e+11 4.0430068e+16    11.787257    759.66075 
     880 9.3742484e-21 2.2293636e+11 2.2293636e+11 4.0430068e+16    11.787257    759.66075 
     890 9.3742484e-21 2.2293636e+11 2.2293636e+11 4.0430068e+16    11.787257    759.66075 
     900 9.3742484e-21 2.2293636e+11 2.2293636e+11 4.0430068e+16    11.787257    759.66075 
     910 9.3742484e-21 2.2293636e+11 2.2293636e+11 4.0430068e+16    11.787257    759.66075 
     920 9.3742484e-21 2.2293636e+11 2.2293636e+11 4.0430068e+16    11.787257    759.66075 
     930 9.3742484e-21 2.2293636e+11 2.2293636e+11 4.0430068e+16    11.787257    759.66075 
     940 9.3742484e-21 2.2293636e+11 2.2293636e+11 4.0430068e+16    11.787257    759.66075 
     950 9.3742484e-21 2.2293636e+11 2.2293636e+11 4.0430068e+16    11.787257    759.66075 
     960 9.3742484e-21 2.2293636e+11 2.2293636e+11 4.0430068e+16    11.787257    759.66075 
     970 9.3742484e-21 2.2293636e+11 2.2293636e+11 4.0430068e+16    11.787257    759.66075 
     980 9.3742484e-21 2.2293636e+11 2.2293636e+11 4.0430068e+16    11.787257    759.66075 
     990 9.3742484e-21 2.2293636e+11 2.2293636e+11 4.0430068e+16    11.787257    759.66075 
    1000 9.3742484e-21 2.2293636e+11 2.2293636e+11 4.0430068e+16    11.787257    759.66075 
    1010 9.3742484e-21 2.2293636e+11 2.2293636e+11 4.0430068e+16    11.787257    759.66075 
    1020 9.3742484e-21 2.2293636e+11 2.2293636e+11 4.0430068e+16    11.787257    759.66075 
    1030 9.3742484e-21 2.2293636e+11 2.2293636e+11 4.0430068e+16    11.787257    759.66075 
    1040 9.3742484e-21 2.2293636e+11 2.2293636e+11 4.0430068e+16    11.787257    759.66075 
    1050 9.3742484e-21 2.2293636e+11 2.2293636e+11 4.0430068e+16    11.787257    759.66075 
    1060 9.3742484e-21 2.2293636e+11 2.2293636e+11 4.0430068e+16    11.787257    759.66075 
    1070 9.3742484e-21 2.2293636e+11 2.2293636e+11 4.0430068e+16    11.787257    759.66075 
    1080 9.3742484e-21 2.2293636e+11 2.2293636e+11 4.0430068e+16    11.787257    759.66075 
