LAMMPS (27 Feb 2020)
OMP_NUM_THREADS environment is not set. Defaulting to 1 thread. (../comm.cpp:94)
  using 1 OpenMP thread(s) per MPI task
dimension    3
boundary    p p p
units metal

atom_style    atomic

neighbor    2.0 bin
neigh_modify delay 5
#neigh_modify    every 1 delay 0 check yes

# create geometry

lattice        diamond 4
Lattice spacing in x,y,z = 4 4 4
region        box block 0 2 0 2 0 6
create_box    1 box
Created orthogonal box = (0 0 0) to (8 8 24)
  1 by 1 by 1 MPI processor grid
create_atoms    1 box
Created 192 atoms
  create_atoms CPU = 0 secs

mass        1 28.0855

# Stillinger-Weber potential for Si
pair_style sw
pair_coeff * * Si.sw Si
Reading potential file Si.sw with DATE: 2007-06-11

timestep 0.01

#Print
thermo          100
thermo_style custom step temp pe etotal press vol density

# minimize
dump 101 all xyz 10 si_min.xyz
fix 1 all box/relax iso 0.0
minimize 1.0e-6 1.0e-8 1000000 10000000
WARNING: Using 'neigh_modify every 1 delay 0 check yes' setting during minimization (../min.cpp:190)
Neighbor list info ...
  update every 1 steps, delay 0 steps, check yes
  max neighbors/atom: 2000, page size: 100000
  master list distance cutoff = 5.77118
  ghost atom cutoff = 5.77118
  binsize = 2.88559, bins = 3 3 9
  1 neighbor lists, perpetual/occasional/extra = 1 0 0
  (1) pair sw, perpetual
      attributes: full, newton on
      pair build: full/bin/atomonly
      stencil: full/bin/3d
      bin: standard
Per MPI rank memory allocation (min/avg/max) = 5.245 | 5.245 | 5.245 Mbytes
Step Temp PotEng TotEng Press Volume Density 
       0            0    3935.8479    3935.8479     21641420         1536    5.8296332 
     100            0    3350.8625    3350.8625     18714891    1582.5423    5.6581846 
     200            0    2834.6304    2834.6304     16205398    1630.0155    5.4933936 
     300            0    2378.0595    2378.0595     14081900    1678.4287    5.3349402 
     400            0    1972.5474    1972.5474     12300134    1727.7911    5.1825227 
     500            0    1610.4753    1610.4753     10802870     1778.112    5.0358564 
     600            0    1285.6816    1285.6816    9524013.2    1829.4006    4.8946725 
     700            0    993.75105    993.75105    8398100.6     1881.666    4.7587172 
     800            0     731.9283     731.9283    7373868.2    1934.9176    4.6277508 
     900            0    498.57654    498.57654    6424738.1    1989.1645    4.5015465 
    1000            0    292.42047    292.42047    5546117.5     2044.416    4.3798897 
    1100            0    112.05172    112.05172      4740853    2100.6812    4.2625776 
    1200            0   -44.137032   -44.137032    4009967.2    2157.9694    4.1494178 
    1300            0   -177.88946   -177.88946    3353170.3    2216.2898    4.0402283 
    1400            0   -291.06257   -291.06257    2769796.6    2275.6516    3.9348364 
    1500            0   -385.61443   -385.61443    2258794.9     2336.064    3.8330785 
    1600            0   -463.58787   -463.58787    1818631.3    2397.5363    3.7347993 
    1700            0   -527.08841   -527.08841    1447164.8    2460.0776    3.6398513 
    1800            0   -578.25457   -578.25457    1141480.6    2523.6972    3.5480948 
    1900            0    -619.2179    -619.2179    897671.04    2588.4042    3.4593966 
    2000            0   -652.04992   -652.04992    710567.73     2654.208    3.3736303 
    2100            0   -678.69325   -678.69325    573464.02    2721.1177     3.290676 
    2200            0   -700.87741   -700.87741     477931.1    2789.1425    3.2104192 
    2300            0   -720.02568   -720.02568    413914.23    2858.2917    3.1327511 
    2400            0   -737.17066   -737.17066    370364.55    2928.5745    3.0575684 
    2500            0   -752.90862   -752.90862    336611.16         3000    2.9847722 
    2600            0   -767.42975   -767.42975    304353.49    3072.5775    2.9142687 
    2700            0   -780.64482   -780.64482    269478.17    3146.3163    2.8459684 
    2800            0    -792.3768    -792.3768     232276.3    3221.2255    2.7797857 
    2900            0   -802.52085   -802.52085    195250.95    3297.3143    2.7156394 
    3000            0    -811.0817    -811.0817    160211.95     3374.592    2.6534516 
    3100            0    -818.1173    -818.1173    127539.04    3453.0678    2.5931482 
    3200            0   -823.69281   -823.69281     97111.31    3532.7508    2.5346584 
    3300            0   -827.87064   -827.87064    68776.335    3613.6504    2.4779145 
    3400            0   -830.71009   -830.71009    42393.038    3695.7757    2.4228517 
    3500            0    -832.2676    -832.2676    17831.226     3779.136    2.3694084 
    3571            0   -832.62478   -832.62478    1431.7956    3839.0765    2.3324142 
Loop time of 11.6877 on 1 procs for 3571 steps with 192 atoms

97.9% CPU use with 1 MPI tasks x 1 OpenMP threads

Minimization stats:
  Stopping criterion = energy tolerance
  Energy initial, next-to-last, final = 
         3935.84791845     -832.623965847      -832.62478384
  Force two-norm initial, final = 62242.6 7.58415
  Force max component initial, final = 62242.6 7.58415
  Final line search alpha, max atom move = 1.1395e-05 8.64213e-05
  Iterations, force evaluations = 3571 3571

MPI task timing breakdown:
Section |  min time  |  avg time  |  max time  |%varavg| %total
---------------------------------------------------------------
Pair    | 11.197     | 11.197     | 11.197     |   0.0 | 95.80
Neigh   | 0.004986   | 0.004986   | 0.004986   |   0.0 |  0.04
Comm    | 0.019948   | 0.019948   | 0.019948   |   0.0 |  0.17
Output  | 0.25068    | 0.25068    | 0.25068    |   0.0 |  2.14
Modify  | 0          | 0          | 0          |   0.0 |  0.00
Other   |            | 0.2155     |            |       |  1.84

Nlocal:    192 ave 192 max 192 min
Histogram: 1 0 0 0 0 0 0 0 0 0
Nghost:    1009 ave 1009 max 1009 min
Histogram: 1 0 0 0 0 0 0 0 0 0
Neighs:    0 ave 0 max 0 min
Histogram: 1 0 0 0 0 0 0 0 0 0
FullNghs:  6528 ave 6528 max 6528 min
Histogram: 1 0 0 0 0 0 0 0 0 0

Total # of neighbors = 6528
Ave neighs/atom = 34
Neighbor list builds = 9
Dangerous builds = 0

unfix 1
undump 101

#---------------------------------NPT-----------------------------------------
dump 102 all xyz 10 npt.xyz
reset_timestep 0

thermo 10
#Relaxation
fix 1 all npt temp 300 300 0.1 iso 0 0 1
run 50
Per MPI rank memory allocation (min/avg/max) = 4.122 | 4.122 | 4.122 Mbytes
Step Temp PotEng TotEng Press Volume Density 
       0            0   -832.62478   -832.62478    1431.7956    3839.0765    2.3324142 
      10 1.571489e-21    -832.6258    -832.6258   -1086.8661    3848.6173    2.3266321 
      20 2.6134035e-21   -832.62714   -832.62714    221.73388    3843.6487    2.3296397 
      30 3.1681566e-21   -832.62651   -832.62651    767.06471    3841.5855    2.3308909 
      40 4.2134521e-21   -832.62484   -832.62484    -1410.543    3849.8502     2.325887 
      50 9.3742484e-21   -832.62489   -832.62489     1399.842     3839.197     2.332341 
Loop time of 0.0249331 on 1 procs for 50 steps with 192 atoms

Performance: 1732.637 ns/day, 0.014 hours/ns, 2005.366 timesteps/s
0.0% CPU use with 1 MPI tasks x 1 OpenMP threads

MPI task timing breakdown:
Section |  min time  |  avg time  |  max time  |%varavg| %total
---------------------------------------------------------------
Pair    | 0.0069792  | 0.0069792  | 0.0069792  |   0.0 | 27.99
Neigh   | 0          | 0          | 0          |   0.0 |  0.00
Comm    | 0          | 0          | 0          |   0.0 |  0.00
Output  | 0.016957   | 0.016957   | 0.016957   |   0.0 | 68.01
Modify  | 0.00099707 | 0.00099707 | 0.00099707 |   0.0 |  4.00
Other   |            | 0          |            |       |  0.00

Nlocal:    192 ave 192 max 192 min
Histogram: 1 0 0 0 0 0 0 0 0 0
Nghost:    1009 ave 1009 max 1009 min
Histogram: 1 0 0 0 0 0 0 0 0 0
Neighs:    0 ave 0 max 0 min
Histogram: 1 0 0 0 0 0 0 0 0 0
FullNghs:  6528 ave 6528 max 6528 min
Histogram: 1 0 0 0 0 0 0 0 0 0

Total # of neighbors = 6528
Ave neighs/atom = 34
Neighbor list builds = 0
Dangerous builds = 0
unfix 1
undump 102

#----------------------------NVT-----------------------------------------

reset_timestep 0
# Calculate potential energy at different distances
#compute 1 all pressure c_ID
compute test all temp
compute 1 all pressure test



#variable      sigmazz equal c_ID[i]
#variable      sigmazz equal c_ID[3]
variable        sigmazz equal c_1[3]
variable        st equal step
variable        index loop 50

timestep 0.1

dump 103 all xyz 10 nvt.xyz

#loop starts
label loop
next            index

#change_box all xy final -0.1 z final 0.0 0.5 boundary p p f remap units box \
#change_box all xy scale -0.1 z boundary p p f remap units box
change_box all z delta 0 0.1 boundary p p s remap units box
  orthogonal box = (-1.42846 -1.42846 -4.28537) to (9.42846 9.42846 28.3854)
#change_box all xy final -0.1 z boundary p p f remap units box
#run 0



thermo 10
thermo_style custom step temp pe etotal press vol density c_1[3]
# NVT relaxation
fix 1 all nvt temp 300 300 1

unfix 1

fix 2 all print 100 "${st} ${sigmazz}" append thermo.out screen no title "# step stress "
#dump 103 all xyz 100 si_min_relaxation.xyz

run 50
Per MPI rank memory allocation (min/avg/max) = 4.114 | 4.114 | 4.114 Mbytes
Step Temp PotEng TotEng Press Volume Density c_1[3] 
       0 9.3742484e-21   -797.92418   -797.92418     -1911.33    3692.0349    2.4253066   -3524.6999 
      10 9.3742484e-21   -797.92418   -797.92418     -1911.33    3692.0349    2.4253066   -3524.6999 
      20 9.3742484e-21   -797.92418   -797.92418     -1911.33    3692.0349    2.4253066   -3524.6999 
      30 9.3742484e-21   -797.92418   -797.92418     -1911.33    3692.0349    2.4253066   -3524.6999 
      40 9.3742484e-21   -797.92418   -797.92418     -1911.33    3692.0349    2.4253066   -3524.6999 
      50 9.3742484e-21   -797.92418   -797.92418     -1911.33    3692.0349    2.4253066   -3524.6999 
Loop time of 0.0209441 on 1 procs for 50 steps with 192 atoms

Performance: 20626.316 ns/day, 0.001 hours/ns, 2387.305 timesteps/s
74.6% CPU use with 1 MPI tasks x 1 OpenMP threads

MPI task timing breakdown:
Section |  min time  |  avg time  |  max time  |%varavg| %total
---------------------------------------------------------------
Pair    | 0.0059826  | 0.0059826  | 0.0059826  |   0.0 | 28.56
Neigh   | 0          | 0          | 0          |   0.0 |  0.00
Comm    | 0          | 0          | 0          |   0.0 |  0.00
Output  | 0.014961   | 0.014961   | 0.014961   |   0.0 | 71.44
Modify  | 0          | 0          | 0          |   0.0 |  0.00
Other   |            | 0          |            |       |  0.00

Nlocal:    192 ave 192 max 192 min
Histogram: 1 0 0 0 0 0 0 0 0 0
Nghost:    678 ave 678 max 678 min
Histogram: 1 0 0 0 0 0 0 0 0 0
Neighs:    0 ave 0 max 0 min
Histogram: 1 0 0 0 0 0 0 0 0 0
FullNghs:  6144 ave 6144 max 6144 min
Histogram: 1 0 0 0 0 0 0 0 0 0

Total # of neighbors = 6144
Ave neighs/atom = 32
Neighbor list builds = 0
Dangerous builds = 0

jump            in.lj.for loop
next            index

#change_box all xy final -0.1 z final 0.0 0.5 boundary p p f remap units box \
#change_box all xy scale -0.1 z boundary p p f remap units box
change_box all z delta 0 0.1 boundary p p s remap units box
  orthogonal box = (-1.42846 -1.42846 -4.29505) to (9.42846 9.42846 27.1335)
#change_box all xy final -0.1 z boundary p p f remap units box
#run 0



thermo 10
thermo_style custom step temp pe etotal press vol density c_1[3]
# NVT relaxation
fix 1 all nvt temp 300 300 1

unfix 1

fix 2 all print 100 "${st} ${sigmazz}" append thermo.out screen no title "# step stress "
#dump 103 all xyz 100 si_min_relaxation.xyz

run 50
Per MPI rank memory allocation (min/avg/max) = 4.114 | 4.114 | 4.114 Mbytes
Step Temp PotEng TotEng Press Volume Density c_1[3] 
      50 9.3742484e-21   -797.87265   -797.87265     -5517.01    3705.2717    2.4166424   -8911.9155 
      60 9.3742484e-21   -797.87265   -797.87265     -5517.01    3705.2717    2.4166424   -8911.9155 
      70 9.3742484e-21   -797.87265   -797.87265     -5517.01    3705.2717    2.4166424   -8911.9155 
      80 9.3742484e-21   -797.87265   -797.87265     -5517.01    3705.2717    2.4166424   -8911.9155 
      90 9.3742484e-21   -797.87265   -797.87265     -5517.01    3705.2717    2.4166424   -8911.9155 
     100 9.3742484e-21   -797.87265   -797.87265     -5517.01    3705.2717    2.4166424   -8911.9155 
Loop time of 0.022938 on 1 procs for 50 steps with 192 atoms

Performance: 18833.366 ns/day, 0.001 hours/ns, 2179.788 timesteps/s
68.1% CPU use with 1 MPI tasks x 1 OpenMP threads

MPI task timing breakdown:
Section |  min time  |  avg time  |  max time  |%varavg| %total
---------------------------------------------------------------
Pair    | 0.0059843  | 0.0059843  | 0.0059843  |   0.0 | 26.09
Neigh   | 0          | 0          | 0          |   0.0 |  0.00
Comm    | 0          | 0          | 0          |   0.0 |  0.00
Output  | 0.015955   | 0.015955   | 0.015955   |   0.0 | 69.56
Modify  | 0.00099897 | 0.00099897 | 0.00099897 |   0.0 |  4.36
Other   |            | 0          |            |       |  0.00

Nlocal:    192 ave 192 max 192 min
Histogram: 1 0 0 0 0 0 0 0 0 0
Nghost:    678 ave 678 max 678 min
Histogram: 1 0 0 0 0 0 0 0 0 0
Neighs:    0 ave 0 max 0 min
Histogram: 1 0 0 0 0 0 0 0 0 0
FullNghs:  6144 ave 6144 max 6144 min
Histogram: 1 0 0 0 0 0 0 0 0 0

Total # of neighbors = 6144
Ave neighs/atom = 32
Neighbor list builds = 0
Dangerous builds = 0

jump            in.lj.for loop
next            index

#change_box all xy final -0.1 z final 0.0 0.5 boundary p p f remap units box \
#change_box all xy scale -0.1 z boundary p p f remap units box
change_box all z delta 0 0.1 boundary p p s remap units box
  orthogonal box = (-1.42846 -1.42846 -4.30121) to (9.42846 9.42846 27.2397)
#change_box all xy final -0.1 z boundary p p f remap units box
#run 0



thermo 10
thermo_style custom step temp pe etotal press vol density c_1[3]
# NVT relaxation
fix 1 all nvt temp 300 300 1

unfix 1

fix 2 all print 100 "${st} ${sigmazz}" append thermo.out screen no title "# step stress "
#dump 103 all xyz 100 si_min_relaxation.xyz

run 50
Per MPI rank memory allocation (min/avg/max) = 4.114 | 4.114 | 4.114 Mbytes
Step Temp PotEng TotEng Press Volume Density c_1[3] 
     100 9.3742484e-21   -797.77664   -797.77664   -9078.3299     3718.546    2.4080156   -14257.959 
     110 9.3742484e-21   -797.77664   -797.77664   -9078.3299     3718.546    2.4080156   -14257.959 
     120 9.3742484e-21   -797.77664   -797.77664   -9078.3299     3718.546    2.4080156   -14257.959 
     130 9.3742484e-21   -797.77664   -797.77664   -9078.3299     3718.546    2.4080156   -14257.959 
     140 9.3742484e-21   -797.77664   -797.77664   -9078.3299     3718.546    2.4080156   -14257.959 
     150 9.3742484e-21   -797.77664   -797.77664   -9078.3299     3718.546    2.4080156   -14257.959 
Loop time of 0.0231268 on 1 procs for 50 steps with 192 atoms

Performance: 18679.594 ns/day, 0.001 hours/ns, 2161.990 timesteps/s
0.0% CPU use with 1 MPI tasks x 1 OpenMP threads

MPI task timing breakdown:
Section |  min time  |  avg time  |  max time  |%varavg| %total
---------------------------------------------------------------
Pair    | 0.0059848  | 0.0059848  | 0.0059848  |   0.0 | 25.88
Neigh   | 0          | 0          | 0          |   0.0 |  0.00
Comm    | 0          | 0          | 0          |   0.0 |  0.00
Output  | 0.017142   | 0.017142   | 0.017142   |   0.0 | 74.12
Modify  | 0          | 0          | 0          |   0.0 |  0.00
Other   |            | 0          |            |       |  0.00

Nlocal:    192 ave 192 max 192 min
Histogram: 1 0 0 0 0 0 0 0 0 0
Nghost:    678 ave 678 max 678 min
Histogram: 1 0 0 0 0 0 0 0 0 0
Neighs:    0 ave 0 max 0 min
Histogram: 1 0 0 0 0 0 0 0 0 0
FullNghs:  6144 ave 6144 max 6144 min
Histogram: 1 0 0 0 0 0 0 0 0 0

Total # of neighbors = 6144
Ave neighs/atom = 32
Neighbor list builds = 0
Dangerous builds = 0

jump            in.lj.for loop
next            index

#change_box all xy final -0.1 z final 0.0 0.5 boundary p p f remap units box \
#change_box all xy scale -0.1 z boundary p p f remap units box
change_box all z delta 0 0.1 boundary p p s remap units box
  orthogonal box = (-1.42846 -1.42846 -4.30753) to (9.42846 9.42846 27.346)
#change_box all xy final -0.1 z boundary p p f remap units box
#run 0



thermo 10
thermo_style custom step temp pe etotal press vol density c_1[3]
# NVT relaxation
fix 1 all nvt temp 300 300 1

unfix 1

fix 2 all print 100 "${st} ${sigmazz}" append thermo.out screen no title "# step stress "
#dump 103 all xyz 100 si_min_relaxation.xyz

run 50
Per MPI rank memory allocation (min/avg/max) = 4.114 | 4.114 | 4.114 Mbytes
Step Temp PotEng TotEng Press Volume Density c_1[3] 
     150 9.3742484e-21   -797.63645   -797.63645   -12595.784    3731.8255    2.3994468   -19562.676 
     160 9.3742484e-21   -797.63645   -797.63645   -12595.784    3731.8255    2.3994468   -19562.676 
     170 9.3742484e-21   -797.63645   -797.63645   -12595.784    3731.8255    2.3994468   -19562.676 
     180 9.3742484e-21   -797.63645   -797.63645   -12595.784    3731.8255    2.3994468   -19562.676 
     190 9.3742484e-21   -797.63645   -797.63645   -12595.784    3731.8255    2.3994468   -19562.676 
     200 9.3742484e-21   -797.63645   -797.63645   -12595.784    3731.8255    2.3994468   -19562.676 
Loop time of 0.0259311 on 1 procs for 50 steps with 192 atoms

Performance: 16659.520 ns/day, 0.001 hours/ns, 1928.185 timesteps/s
60.3% CPU use with 1 MPI tasks x 1 OpenMP threads

MPI task timing breakdown:
Section |  min time  |  avg time  |  max time  |%varavg| %total
---------------------------------------------------------------
Pair    | 0.0069892  | 0.0069892  | 0.0069892  |   0.0 | 26.95
Neigh   | 0          | 0          | 0          |   0.0 |  0.00
Comm    | 0          | 0          | 0          |   0.0 |  0.00
Output  | 0.018942   | 0.018942   | 0.018942   |   0.0 | 73.05
Modify  | 0          | 0          | 0          |   0.0 |  0.00
Other   |            | 0          |            |       |  0.00

Nlocal:    192 ave 192 max 192 min
Histogram: 1 0 0 0 0 0 0 0 0 0
Nghost:    678 ave 678 max 678 min
Histogram: 1 0 0 0 0 0 0 0 0 0
Neighs:    0 ave 0 max 0 min
Histogram: 1 0 0 0 0 0 0 0 0 0
FullNghs:  6144 ave 6144 max 6144 min
Histogram: 1 0 0 0 0 0 0 0 0 0

Total # of neighbors = 6144
Ave neighs/atom = 32
Neighbor list builds = 0
Dangerous builds = 0

jump            in.lj.for loop
next            index

#change_box all xy final -0.1 z final 0.0 0.5 boundary p p f remap units box \
#change_box all xy scale -0.1 z boundary p p f remap units box
change_box all z delta 0 0.1 boundary p p s remap units box
  orthogonal box = (-1.42846 -1.42846 -4.31387) to (9.42846 9.42846 27.4523)
#change_box all xy final -0.1 z boundary p p f remap units box
#run 0



thermo 10
thermo_style custom step temp pe etotal press vol density c_1[3]
# NVT relaxation
fix 1 all nvt temp 300 300 1

unfix 1

fix 2 all print 100 "${st} ${sigmazz}" append thermo.out screen no title "# step stress "
#dump 103 all xyz 100 si_min_relaxation.xyz

run 50
Per MPI rank memory allocation (min/avg/max) = 4.114 | 4.114 | 4.114 Mbytes
Step Temp PotEng TotEng Press Volume Density c_1[3] 
     200 9.3742484e-21   -797.45239   -797.45239   -16069.873    3745.1103    2.3909353   -24825.939 
     210 9.3742484e-21   -797.45239   -797.45239   -16069.873    3745.1103    2.3909353   -24825.939 
     220 9.3742484e-21   -797.45239   -797.45239   -16069.873    3745.1103    2.3909353   -24825.939 
     230 9.3742484e-21   -797.45239   -797.45239   -16069.873    3745.1103    2.3909353   -24825.939 
     240 9.3742484e-21   -797.45239   -797.45239   -16069.873    3745.1103    2.3909353   -24825.939 
     250 9.3742484e-21   -797.45239   -797.45239   -16069.873    3745.1103    2.3909353   -24825.939 
Loop time of 0.0209439 on 1 procs for 50 steps with 192 atoms

Performance: 20626.550 ns/day, 0.001 hours/ns, 2387.332 timesteps/s
0.0% CPU use with 1 MPI tasks x 1 OpenMP threads

MPI task timing breakdown:
Section |  min time  |  avg time  |  max time  |%varavg| %total
---------------------------------------------------------------
Pair    | 0.0059838  | 0.0059838  | 0.0059838  |   0.0 | 28.57
Neigh   | 0          | 0          | 0          |   0.0 |  0.00
Comm    | 0.00099802 | 0.00099802 | 0.00099802 |   0.0 |  4.77
Output  | 0.013962   | 0.013962   | 0.013962   |   0.0 | 66.66
Modify  | 0          | 0          | 0          |   0.0 |  0.00
Other   |            | 0          |            |       |  0.00

Nlocal:    192 ave 192 max 192 min
Histogram: 1 0 0 0 0 0 0 0 0 0
Nghost:    678 ave 678 max 678 min
Histogram: 1 0 0 0 0 0 0 0 0 0
Neighs:    0 ave 0 max 0 min
Histogram: 1 0 0 0 0 0 0 0 0 0
FullNghs:  6144 ave 6144 max 6144 min
Histogram: 1 0 0 0 0 0 0 0 0 0

Total # of neighbors = 6144
Ave neighs/atom = 32
Neighbor list builds = 0
Dangerous builds = 0

jump            in.lj.for loop
next            index

#change_box all xy final -0.1 z final 0.0 0.5 boundary p p f remap units box \
#change_box all xy scale -0.1 z boundary p p f remap units box
change_box all z delta 0 0.1 boundary p p s remap units box
  orthogonal box = (-1.42846 -1.42846 -4.32023) to (9.42846 9.42846 27.5587)
#change_box all xy final -0.1 z boundary p p f remap units box
#run 0



thermo 10
thermo_style custom step temp pe etotal press vol density c_1[3]
# NVT relaxation
fix 1 all nvt temp 300 300 1

unfix 1

fix 2 all print 100 "${st} ${sigmazz}" append thermo.out screen no title "# step stress "
#dump 103 all xyz 100 si_min_relaxation.xyz

run 50
Per MPI rank memory allocation (min/avg/max) = 4.114 | 4.114 | 4.114 Mbytes
Step Temp PotEng TotEng Press Volume Density c_1[3] 
     250 9.3742484e-21   -797.22477   -797.22477   -19501.096    3758.4005    2.3824807   -30047.629 
     260 9.3742484e-21   -797.22477   -797.22477   -19501.096    3758.4005    2.3824807   -30047.629 
     270 9.3742484e-21   -797.22477   -797.22477   -19501.096    3758.4005    2.3824807   -30047.629 
     280 9.3742484e-21   -797.22477   -797.22477   -19501.096    3758.4005    2.3824807   -30047.629 
     290 9.3742484e-21   -797.22477   -797.22477   -19501.096    3758.4005    2.3824807   -30047.629 
     300 9.3742484e-21   -797.22477   -797.22477   -19501.096    3758.4005    2.3824807   -30047.629 
Loop time of 0.0224981 on 1 procs for 50 steps with 192 atoms

Performance: 19201.595 ns/day, 0.001 hours/ns, 2222.407 timesteps/s
69.5% CPU use with 1 MPI tasks x 1 OpenMP threads

MPI task timing breakdown:
Section |  min time  |  avg time  |  max time  |%varavg| %total
---------------------------------------------------------------
Pair    | 0.0065486  | 0.0065486  | 0.0065486  |   0.0 | 29.11
Neigh   | 0          | 0          | 0          |   0.0 |  0.00
Comm    | 0          | 0          | 0          |   0.0 |  0.00
Output  | 0.015949   | 0.015949   | 0.015949   |   0.0 | 70.89
Modify  | 0          | 0          | 0          |   0.0 |  0.00
Other   |            | 0          |            |       |  0.00

Nlocal:    192 ave 192 max 192 min
Histogram: 1 0 0 0 0 0 0 0 0 0
Nghost:    678 ave 678 max 678 min
Histogram: 1 0 0 0 0 0 0 0 0 0
Neighs:    0 ave 0 max 0 min
Histogram: 1 0 0 0 0 0 0 0 0 0
FullNghs:  6144 ave 6144 max 6144 min
Histogram: 1 0 0 0 0 0 0 0 0 0

Total # of neighbors = 6144
Ave neighs/atom = 32
Neighbor list builds = 0
Dangerous builds = 0

jump            in.lj.for loop
next            index

#change_box all xy final -0.1 z final 0.0 0.5 boundary p p f remap units box \
#change_box all xy scale -0.1 z boundary p p f remap units box
change_box all z delta 0 0.1 boundary p p s remap units box
  orthogonal box = (-1.42846 -1.42846 -4.32662) to (9.42846 9.42846 27.6651)
#change_box all xy final -0.1 z boundary p p f remap units box
#run 0



thermo 10
thermo_style custom step temp pe etotal press vol density c_1[3]
# NVT relaxation
fix 1 all nvt temp 300 300 1

unfix 1

fix 2 all print 100 "${st} ${sigmazz}" append thermo.out screen no title "# step stress "
#dump 103 all xyz 100 si_min_relaxation.xyz

run 50
Per MPI rank memory allocation (min/avg/max) = 4.114 | 4.114 | 4.114 Mbytes
Step Temp PotEng TotEng Press Volume Density c_1[3] 
     300 9.3742484e-21    -796.9539    -796.9539   -22889.944     3771.696    2.3740823   -35227.643 
     310 9.3742484e-21    -796.9539    -796.9539   -22889.944     3771.696    2.3740823   -35227.643 
     320 9.3742484e-21    -796.9539    -796.9539   -22889.944     3771.696    2.3740823   -35227.643 
     330 9.3742484e-21    -796.9539    -796.9539   -22889.944     3771.696    2.3740823   -35227.643 
     340 9.3742484e-21    -796.9539    -796.9539   -22889.944     3771.696    2.3740823   -35227.643 
     350 9.3742484e-21    -796.9539    -796.9539   -22889.944     3771.696    2.3740823   -35227.643 
Loop time of 0.0269279 on 1 procs for 50 steps with 192 atoms

Performance: 16042.812 ns/day, 0.001 hours/ns, 1856.807 timesteps/s
0.0% CPU use with 1 MPI tasks x 1 OpenMP threads

MPI task timing breakdown:
Section |  min time  |  avg time  |  max time  |%varavg| %total
---------------------------------------------------------------
Pair    | 0.0079763  | 0.0079763  | 0.0079763  |   0.0 | 29.62
Neigh   | 0          | 0          | 0          |   0.0 |  0.00
Comm    | 0          | 0          | 0          |   0.0 |  0.00
Output  | 0.017954   | 0.017954   | 0.017954   |   0.0 | 66.67
Modify  | 0          | 0          | 0          |   0.0 |  0.00
Other   |            | 0.000998   |            |       |  3.71

Nlocal:    192 ave 192 max 192 min
Histogram: 1 0 0 0 0 0 0 0 0 0
Nghost:    678 ave 678 max 678 min
Histogram: 1 0 0 0 0 0 0 0 0 0
Neighs:    0 ave 0 max 0 min
Histogram: 1 0 0 0 0 0 0 0 0 0
FullNghs:  6144 ave 6144 max 6144 min
Histogram: 1 0 0 0 0 0 0 0 0 0

Total # of neighbors = 6144
Ave neighs/atom = 32
Neighbor list builds = 0
Dangerous builds = 0

jump            in.lj.for loop
next            index

#change_box all xy final -0.1 z final 0.0 0.5 boundary p p f remap units box \
#change_box all xy scale -0.1 z boundary p p f remap units box
change_box all z delta 0 0.1 boundary p p s remap units box
  orthogonal box = (-1.42846 -1.42846 -4.33303) to (9.42846 9.42846 27.7715)
#change_box all xy final -0.1 z boundary p p f remap units box
#run 0



thermo 10
thermo_style custom step temp pe etotal press vol density c_1[3]
# NVT relaxation
fix 1 all nvt temp 300 300 1

unfix 1

fix 2 all print 100 "${st} ${sigmazz}" append thermo.out screen no title "# step stress "
#dump 103 all xyz 100 si_min_relaxation.xyz

run 50
Per MPI rank memory allocation (min/avg/max) = 4.114 | 4.114 | 4.114 Mbytes
Step Temp PotEng TotEng Press Volume Density c_1[3] 
     350 9.3742484e-21   -796.64009   -796.64009   -26236.907    3784.9968    2.3657396   -40365.888 
     360 9.3742484e-21   -796.64009   -796.64009   -26236.907    3784.9968    2.3657396   -40365.888 
     370 9.3742484e-21   -796.64009   -796.64009   -26236.907    3784.9968    2.3657396   -40365.888 
     380 9.3742484e-21   -796.64009   -796.64009   -26236.907    3784.9968    2.3657396   -40365.888 
     390 9.3742484e-21   -796.64009   -796.64009   -26236.907    3784.9968    2.3657396   -40365.888 
     400 9.3742484e-21   -796.64009   -796.64009   -26236.907    3784.9968    2.3657396   -40365.888 
Loop time of 0.0219409 on 1 procs for 50 steps with 192 atoms

Performance: 19689.214 ns/day, 0.001 hours/ns, 2278.844 timesteps/s
71.2% CPU use with 1 MPI tasks x 1 OpenMP threads

MPI task timing breakdown:
Section |  min time  |  avg time  |  max time  |%varavg| %total
---------------------------------------------------------------
Pair    | 0.0059845  | 0.0059845  | 0.0059845  |   0.0 | 27.28
Neigh   | 0          | 0          | 0          |   0.0 |  0.00
Comm    | 0          | 0          | 0          |   0.0 |  0.00
Output  | 0.01496    | 0.01496    | 0.01496    |   0.0 | 68.18
Modify  | 0          | 0          | 0          |   0.0 |  0.00
Other   |            | 0.0009968  |            |       |  4.54

Nlocal:    192 ave 192 max 192 min
Histogram: 1 0 0 0 0 0 0 0 0 0
Nghost:    678 ave 678 max 678 min
Histogram: 1 0 0 0 0 0 0 0 0 0
Neighs:    0 ave 0 max 0 min
Histogram: 1 0 0 0 0 0 0 0 0 0
FullNghs:  6144 ave 6144 max 6144 min
Histogram: 1 0 0 0 0 0 0 0 0 0

Total # of neighbors = 6144
Ave neighs/atom = 32
Neighbor list builds = 0
Dangerous builds = 0

jump            in.lj.for loop
next            index

#change_box all xy final -0.1 z final 0.0 0.5 boundary p p f remap units box \
#change_box all xy scale -0.1 z boundary p p f remap units box
change_box all z delta 0 0.1 boundary p p s remap units box
  orthogonal box = (-1.42846 -1.42846 -4.33946) to (9.42846 9.42846 27.8779)
#change_box all xy final -0.1 z boundary p p f remap units box
#run 0



thermo 10
thermo_style custom step temp pe etotal press vol density c_1[3]
# NVT relaxation
fix 1 all nvt temp 300 300 1

unfix 1

fix 2 all print 100 "${st} ${sigmazz}" append thermo.out screen no title "# step stress "
#dump 103 all xyz 100 si_min_relaxation.xyz

run 50
Per MPI rank memory allocation (min/avg/max) = 4.114 | 4.114 | 4.114 Mbytes
Step Temp PotEng TotEng Press Volume Density c_1[3] 
     400 9.3742484e-21   -796.28366   -796.28366    -29542.47    3798.3029     2.357452   -45462.284 
     410 9.3742484e-21   -796.28366   -796.28366    -29542.47    3798.3029     2.357452   -45462.284 
     420 9.3742484e-21   -796.28366   -796.28366    -29542.47    3798.3029     2.357452   -45462.284 
     430 9.3742484e-21   -796.28366   -796.28366    -29542.47    3798.3029     2.357452   -45462.284 
     440 9.3742484e-21   -796.28366   -796.28366    -29542.47    3798.3029     2.357452   -45462.284 
     450 9.3742484e-21   -796.28366   -796.28366    -29542.47    3798.3029     2.357452   -45462.284 
Loop time of 0.023936 on 1 procs for 50 steps with 192 atoms

Performance: 18048.103 ns/day, 0.001 hours/ns, 2088.901 timesteps/s
65.3% CPU use with 1 MPI tasks x 1 OpenMP threads

MPI task timing breakdown:
Section |  min time  |  avg time  |  max time  |%varavg| %total
---------------------------------------------------------------
Pair    | 0.0069795  | 0.0069795  | 0.0069795  |   0.0 | 29.16
Neigh   | 0          | 0          | 0          |   0.0 |  0.00
Comm    | 0          | 0          | 0          |   0.0 |  0.00
Output  | 0.016957   | 0.016957   | 0.016957   |   0.0 | 70.84
Modify  | 0          | 0          | 0          |   0.0 |  0.00
Other   |            | 0          |            |       |  0.00

Nlocal:    192 ave 192 max 192 min
Histogram: 1 0 0 0 0 0 0 0 0 0
Nghost:    678 ave 678 max 678 min
Histogram: 1 0 0 0 0 0 0 0 0 0
Neighs:    0 ave 0 max 0 min
Histogram: 1 0 0 0 0 0 0 0 0 0
FullNghs:  6144 ave 6144 max 6144 min
Histogram: 1 0 0 0 0 0 0 0 0 0

Total # of neighbors = 6144
Ave neighs/atom = 32
Neighbor list builds = 0
Dangerous builds = 0

jump            in.lj.for loop
next            index

#change_box all xy final -0.1 z final 0.0 0.5 boundary p p f remap units box \
#change_box all xy scale -0.1 z boundary p p f remap units box
change_box all z delta 0 0.1 boundary p p s remap units box
  orthogonal box = (-1.42846 -1.42846 -4.34591) to (9.42846 9.42846 27.9844)
#change_box all xy final -0.1 z boundary p p f remap units box
#run 0



thermo 10
thermo_style custom step temp pe etotal press vol density c_1[3]
# NVT relaxation
fix 1 all nvt temp 300 300 1

unfix 1

fix 2 all print 100 "${st} ${sigmazz}" append thermo.out screen no title "# step stress "
#dump 103 all xyz 100 si_min_relaxation.xyz

run 50
Per MPI rank memory allocation (min/avg/max) = 4.114 | 4.114 | 4.114 Mbytes
Step Temp PotEng TotEng Press Volume Density c_1[3] 
     450 9.3742484e-21   -795.88491   -795.88491   -32807.114    3811.6144    2.3492189   -50516.762 
     460 9.3742484e-21   -795.88491   -795.88491   -32807.114    3811.6144    2.3492189   -50516.762 
     470 9.3742484e-21   -795.88491   -795.88491   -32807.114    3811.6144    2.3492189   -50516.762 
     480 9.3742484e-21   -795.88491   -795.88491   -32807.114    3811.6144    2.3492189   -50516.762 
     490 9.3742484e-21   -795.88491   -795.88491   -32807.114    3811.6144    2.3492189   -50516.762 
     500 9.3742484e-21   -795.88491   -795.88491   -32807.114    3811.6144    2.3492189   -50516.762 
Loop time of 0.0219421 on 1 procs for 50 steps with 192 atoms

Performance: 19688.145 ns/day, 0.001 hours/ns, 2278.720 timesteps/s
71.2% CPU use with 1 MPI tasks x 1 OpenMP threads

MPI task timing breakdown:
Section |  min time  |  avg time  |  max time  |%varavg| %total
---------------------------------------------------------------
Pair    | 0.0059826  | 0.0059826  | 0.0059826  |   0.0 | 27.27
Neigh   | 0          | 0          | 0          |   0.0 |  0.00
Comm    | 0          | 0          | 0          |   0.0 |  0.00
Output  | 0.01596    | 0.01596    | 0.01596    |   0.0 | 72.73
Modify  | 0          | 0          | 0          |   0.0 |  0.00
Other   |            | 0          |            |       |  0.00

Nlocal:    192 ave 192 max 192 min
Histogram: 1 0 0 0 0 0 0 0 0 0
Nghost:    678 ave 678 max 678 min
Histogram: 1 0 0 0 0 0 0 0 0 0
Neighs:    0 ave 0 max 0 min
Histogram: 1 0 0 0 0 0 0 0 0 0
FullNghs:  6144 ave 6144 max 6144 min
Histogram: 1 0 0 0 0 0 0 0 0 0

Total # of neighbors = 6144
Ave neighs/atom = 32
Neighbor list builds = 0
Dangerous builds = 0

jump            in.lj.for loop
next            index

#change_box all xy final -0.1 z final 0.0 0.5 boundary p p f remap units box \
#change_box all xy scale -0.1 z boundary p p f remap units box
change_box all z delta 0 0.1 boundary p p s remap units box
  orthogonal box = (-1.42846 -1.42846 -4.35239) to (9.42846 9.42846 28.0908)
#change_box all xy final -0.1 z boundary p p f remap units box
#run 0



thermo 10
thermo_style custom step temp pe etotal press vol density c_1[3]
# NVT relaxation
fix 1 all nvt temp 300 300 1

unfix 1

fix 2 all print 100 "${st} ${sigmazz}" append thermo.out screen no title "# step stress "
#dump 103 all xyz 100 si_min_relaxation.xyz

run 50
Per MPI rank memory allocation (min/avg/max) = 4.114 | 4.114 | 4.114 Mbytes
Step Temp PotEng TotEng Press Volume Density c_1[3] 
     500 9.3742484e-21   -795.44417   -795.44417   -36031.315    3824.9311      2.34104   -55529.266 
     510 9.3742484e-21   -795.44417   -795.44417   -36031.315    3824.9311      2.34104   -55529.266 
     520 9.3742484e-21   -795.44417   -795.44417   -36031.315    3824.9311      2.34104   -55529.266 
     530 9.3742484e-21   -795.44417   -795.44417   -36031.315    3824.9311      2.34104   -55529.266 
     540 9.3742484e-21   -795.44417   -795.44417   -36031.315    3824.9311      2.34104   -55529.266 
     550 9.3742484e-21   -795.44417   -795.44417   -36031.315    3824.9311      2.34104   -55529.266 
Loop time of 0.0219409 on 1 procs for 50 steps with 192 atoms

Performance: 19689.214 ns/day, 0.001 hours/ns, 2278.844 timesteps/s
0.0% CPU use with 1 MPI tasks x 1 OpenMP threads

MPI task timing breakdown:
Section |  min time  |  avg time  |  max time  |%varavg| %total
---------------------------------------------------------------
Pair    | 0.0069842  | 0.0069842  | 0.0069842  |   0.0 | 31.83
Neigh   | 0          | 0          | 0          |   0.0 |  0.00
Comm    | 0          | 0          | 0          |   0.0 |  0.00
Output  | 0.014957   | 0.014957   | 0.014957   |   0.0 | 68.17
Modify  | 0          | 0          | 0          |   0.0 |  0.00
Other   |            | 0          |            |       |  0.00

Nlocal:    192 ave 192 max 192 min
Histogram: 1 0 0 0 0 0 0 0 0 0
Nghost:    678 ave 678 max 678 min
Histogram: 1 0 0 0 0 0 0 0 0 0
Neighs:    0 ave 0 max 0 min
Histogram: 1 0 0 0 0 0 0 0 0 0
FullNghs:  6144 ave 6144 max 6144 min
Histogram: 1 0 0 0 0 0 0 0 0 0

Total # of neighbors = 6144
Ave neighs/atom = 32
Neighbor list builds = 0
Dangerous builds = 0

jump            in.lj.for loop
next            index

#change_box all xy final -0.1 z final 0.0 0.5 boundary p p f remap units box \
#change_box all xy scale -0.1 z boundary p p f remap units box
change_box all z delta 0 0.1 boundary p p s remap units box
  orthogonal box = (-1.42846 -1.42846 -4.35889) to (9.42846 9.42846 28.1973)
#change_box all xy final -0.1 z boundary p p f remap units box
#run 0



thermo 10
thermo_style custom step temp pe etotal press vol density c_1[3]
# NVT relaxation
fix 1 all nvt temp 300 300 1

unfix 1

fix 2 all print 100 "${st} ${sigmazz}" append thermo.out screen no title "# step stress "
#dump 103 all xyz 100 si_min_relaxation.xyz

run 50
Per MPI rank memory allocation (min/avg/max) = 4.114 | 4.114 | 4.114 Mbytes
Step Temp PotEng TotEng Press Volume Density c_1[3] 
     550 9.3742484e-21   -794.96175   -794.96175   -39215.547    3838.2532    2.3329145   -60499.751 
     560 9.3742484e-21   -794.96175   -794.96175   -39215.547    3838.2532    2.3329145   -60499.751 
     570 9.3742484e-21   -794.96175   -794.96175   -39215.547    3838.2532    2.3329145   -60499.751 
     580 9.3742484e-21   -794.96175   -794.96175   -39215.547    3838.2532    2.3329145   -60499.751 
     590 9.3742484e-21   -794.96175   -794.96175   -39215.547    3838.2532    2.3329145   -60499.751 
     600 9.3742484e-21   -794.96175   -794.96175   -39215.547    3838.2532    2.3329145   -60499.751 
Loop time of 0.020942 on 1 procs for 50 steps with 192 atoms

Performance: 20628.429 ns/day, 0.001 hours/ns, 2387.550 timesteps/s
0.0% CPU use with 1 MPI tasks x 1 OpenMP threads

MPI task timing breakdown:
Section |  min time  |  avg time  |  max time  |%varavg| %total
---------------------------------------------------------------
Pair    | 0.0049872  | 0.0049872  | 0.0049872  |   0.0 | 23.81
Neigh   | 0          | 0          | 0          |   0.0 |  0.00
Comm    | 0.00099707 | 0.00099707 | 0.00099707 |   0.0 |  4.76
Output  | 0.014958   | 0.014958   | 0.014958   |   0.0 | 71.42
Modify  | 0          | 0          | 0          |   0.0 |  0.00
Other   |            | 0          |            |       |  0.00

Nlocal:    192 ave 192 max 192 min
Histogram: 1 0 0 0 0 0 0 0 0 0
Nghost:    678 ave 678 max 678 min
Histogram: 1 0 0 0 0 0 0 0 0 0
Neighs:    0 ave 0 max 0 min
Histogram: 1 0 0 0 0 0 0 0 0 0
FullNghs:  6144 ave 6144 max 6144 min
Histogram: 1 0 0 0 0 0 0 0 0 0

Total # of neighbors = 6144
Ave neighs/atom = 32
Neighbor list builds = 0
Dangerous builds = 0

jump            in.lj.for loop
next            index

#change_box all xy final -0.1 z final 0.0 0.5 boundary p p f remap units box \
#change_box all xy scale -0.1 z boundary p p f remap units box
change_box all z delta 0 0.1 boundary p p s remap units box
  orthogonal box = (-1.42846 -1.42846 -4.36541) to (9.42846 9.42846 28.3039)
#change_box all xy final -0.1 z boundary p p f remap units box
#run 0



thermo 10
thermo_style custom step temp pe etotal press vol density c_1[3]
# NVT relaxation
fix 1 all nvt temp 300 300 1

unfix 1

fix 2 all print 100 "${st} ${sigmazz}" append thermo.out screen no title "# step stress "
#dump 103 all xyz 100 si_min_relaxation.xyz

run 50
Per MPI rank memory allocation (min/avg/max) = 4.114 | 4.114 | 4.114 Mbytes
Step Temp PotEng TotEng Press Volume Density c_1[3] 
     600 9.3742484e-21   -794.43797   -794.43797   -42360.277    3851.5807     2.324842   -65428.184 
     610 9.3742484e-21   -794.43797   -794.43797   -42360.277    3851.5807     2.324842   -65428.184 
     620 9.3742484e-21   -794.43797   -794.43797   -42360.277    3851.5807     2.324842   -65428.184 
     630 9.3742484e-21   -794.43797   -794.43797   -42360.277    3851.5807     2.324842   -65428.184 
     640 9.3742484e-21   -794.43797   -794.43797   -42360.277    3851.5807     2.324842   -65428.184 
     650 9.3742484e-21   -794.43797   -794.43797   -42360.277    3851.5807     2.324842   -65428.184 
Loop time of 0.0219431 on 1 procs for 50 steps with 192 atoms

Performance: 19687.289 ns/day, 0.001 hours/ns, 2278.621 timesteps/s
71.2% CPU use with 1 MPI tasks x 1 OpenMP threads

MPI task timing breakdown:
Section |  min time  |  avg time  |  max time  |%varavg| %total
---------------------------------------------------------------
Pair    | 0.0069897  | 0.0069897  | 0.0069897  |   0.0 | 31.85
Neigh   | 0          | 0          | 0          |   0.0 |  0.00
Comm    | 0          | 0          | 0          |   0.0 |  0.00
Output  | 0.014953   | 0.014953   | 0.014953   |   0.0 | 68.15
Modify  | 0          | 0          | 0          |   0.0 |  0.00
Other   |            | 0          |            |       |  0.00

Nlocal:    192 ave 192 max 192 min
Histogram: 1 0 0 0 0 0 0 0 0 0
Nghost:    678 ave 678 max 678 min
Histogram: 1 0 0 0 0 0 0 0 0 0
Neighs:    0 ave 0 max 0 min
Histogram: 1 0 0 0 0 0 0 0 0 0
FullNghs:  6144 ave 6144 max 6144 min
Histogram: 1 0 0 0 0 0 0 0 0 0

Total # of neighbors = 6144
Ave neighs/atom = 32
Neighbor list builds = 0
Dangerous builds = 0

jump            in.lj.for loop
next            index

#change_box all xy final -0.1 z final 0.0 0.5 boundary p p f remap units box \
#change_box all xy scale -0.1 z boundary p p f remap units box
change_box all z delta 0 0.1 boundary p p s remap units box
  orthogonal box = (-1.42846 -1.42846 -4.37195) to (9.42846 9.42846 28.4104)
#change_box all xy final -0.1 z boundary p p f remap units box
#run 0



thermo 10
thermo_style custom step temp pe etotal press vol density c_1[3]
# NVT relaxation
fix 1 all nvt temp 300 300 1

unfix 1

fix 2 all print 100 "${st} ${sigmazz}" append thermo.out screen no title "# step stress "
#dump 103 all xyz 100 si_min_relaxation.xyz

run 50
Per MPI rank memory allocation (min/avg/max) = 4.114 | 4.114 | 4.114 Mbytes
Step Temp PotEng TotEng Press Volume Density c_1[3] 
     650 9.3742484e-21   -793.87313   -793.87313   -45465.972    3864.9134    2.3168221   -70314.542 
     660 9.3742484e-21   -793.87313   -793.87313   -45465.972    3864.9134    2.3168221   -70314.542 
     670 9.3742484e-21   -793.87313   -793.87313   -45465.972    3864.9134    2.3168221   -70314.542 
     680 9.3742484e-21   -793.87313   -793.87313   -45465.972    3864.9134    2.3168221   -70314.542 
     690 9.3742484e-21   -793.87313   -793.87313   -45465.972    3864.9134    2.3168221   -70314.542 
     700 9.3742484e-21   -793.87313   -793.87313   -45465.972    3864.9134    2.3168221   -70314.542 
Loop time of 0.0219409 on 1 procs for 50 steps with 192 atoms

Performance: 19689.214 ns/day, 0.001 hours/ns, 2278.844 timesteps/s
0.0% CPU use with 1 MPI tasks x 1 OpenMP threads

MPI task timing breakdown:
Section |  min time  |  avg time  |  max time  |%varavg| %total
---------------------------------------------------------------
Pair    | 0.0049851  | 0.0049851  | 0.0049851  |   0.0 | 22.72
Neigh   | 0          | 0          | 0          |   0.0 |  0.00
Comm    | 0          | 0          | 0          |   0.0 |  0.00
Output  | 0.016956   | 0.016956   | 0.016956   |   0.0 | 77.28
Modify  | 0          | 0          | 0          |   0.0 |  0.00
Other   |            | 0          |            |       |  0.00

Nlocal:    192 ave 192 max 192 min
Histogram: 1 0 0 0 0 0 0 0 0 0
Nghost:    678 ave 678 max 678 min
Histogram: 1 0 0 0 0 0 0 0 0 0
Neighs:    0 ave 0 max 0 min
Histogram: 1 0 0 0 0 0 0 0 0 0
FullNghs:  6144 ave 6144 max 6144 min
Histogram: 1 0 0 0 0 0 0 0 0 0

Total # of neighbors = 6144
Ave neighs/atom = 32
Neighbor list builds = 0
Dangerous builds = 0

jump            in.lj.for loop
next            index

#change_box all xy final -0.1 z final 0.0 0.5 boundary p p f remap units box \
#change_box all xy scale -0.1 z boundary p p f remap units box
change_box all z delta 0 0.1 boundary p p s remap units box
  orthogonal box = (-1.42846 -1.42846 -4.37852) to (9.42846 9.42846 28.517)
#change_box all xy final -0.1 z boundary p p f remap units box
#run 0



thermo 10
thermo_style custom step temp pe etotal press vol density c_1[3]
# NVT relaxation
fix 1 all nvt temp 300 300 1

unfix 1

fix 2 all print 100 "${st} ${sigmazz}" append thermo.out screen no title "# step stress "
#dump 103 all xyz 100 si_min_relaxation.xyz

run 50
Per MPI rank memory allocation (min/avg/max) = 4.114 | 4.114 | 4.114 Mbytes
Step Temp PotEng TotEng Press Volume Density c_1[3] 
     700 9.3742484e-21   -793.26757   -793.26757   -48533.091    3878.2515     2.308854   -75158.815 
     710 9.3742484e-21   -793.26757   -793.26757   -48533.091    3878.2515     2.308854   -75158.815 
     720 9.3742484e-21   -793.26757   -793.26757   -48533.091    3878.2515     2.308854   -75158.815 
     730 9.3742484e-21   -793.26757   -793.26757   -48533.091    3878.2515     2.308854   -75158.815 
     740 9.3742484e-21   -793.26757   -793.26757   -48533.091    3878.2515     2.308854   -75158.815 
     750 9.3742484e-21   -793.26757   -793.26757   -48533.091    3878.2515     2.308854   -75158.815 
Loop time of 0.0219409 on 1 procs for 50 steps with 192 atoms

Performance: 19689.214 ns/day, 0.001 hours/ns, 2278.844 timesteps/s
71.2% CPU use with 1 MPI tasks x 1 OpenMP threads

MPI task timing breakdown:
Section |  min time  |  avg time  |  max time  |%varavg| %total
---------------------------------------------------------------
Pair    | 0.0049865  | 0.0049865  | 0.0049865  |   0.0 | 22.73
Neigh   | 0          | 0          | 0          |   0.0 |  0.00
Comm    | 0          | 0          | 0          |   0.0 |  0.00
Output  | 0.016954   | 0.016954   | 0.016954   |   0.0 | 77.27
Modify  | 0          | 0          | 0          |   0.0 |  0.00
Other   |            | 0          |            |       |  0.00

Nlocal:    192 ave 192 max 192 min
Histogram: 1 0 0 0 0 0 0 0 0 0
Nghost:    678 ave 678 max 678 min
Histogram: 1 0 0 0 0 0 0 0 0 0
Neighs:    0 ave 0 max 0 min
Histogram: 1 0 0 0 0 0 0 0 0 0
FullNghs:  6144 ave 6144 max 6144 min
Histogram: 1 0 0 0 0 0 0 0 0 0

Total # of neighbors = 6144
Ave neighs/atom = 32
Neighbor list builds = 0
Dangerous builds = 0

jump            in.lj.for loop
next            index

#change_box all xy final -0.1 z final 0.0 0.5 boundary p p f remap units box \
#change_box all xy scale -0.1 z boundary p p f remap units box
change_box all z delta 0 0.1 boundary p p s remap units box
  orthogonal box = (-1.42846 -1.42846 -4.38511) to (9.42846 9.42846 28.6236)
#change_box all xy final -0.1 z boundary p p f remap units box
#run 0



thermo 10
thermo_style custom step temp pe etotal press vol density c_1[3]
# NVT relaxation
fix 1 all nvt temp 300 300 1

unfix 1

fix 2 all print 100 "${st} ${sigmazz}" append thermo.out screen no title "# step stress "
#dump 103 all xyz 100 si_min_relaxation.xyz

run 50
Per MPI rank memory allocation (min/avg/max) = 4.114 | 4.114 | 4.114 Mbytes
Step Temp PotEng TotEng Press Volume Density c_1[3] 
     750 9.3742484e-21    -792.6216    -792.6216   -51562.092    3891.5949    2.3009375   -79961.004 
     760 9.3742484e-21    -792.6216    -792.6216   -51562.092    3891.5949    2.3009375   -79961.004 
     770 9.3742484e-21    -792.6216    -792.6216   -51562.092    3891.5949    2.3009375   -79961.004 
     780 9.3742484e-21    -792.6216    -792.6216   -51562.092    3891.5949    2.3009375   -79961.004 
     790 9.3742484e-21    -792.6216    -792.6216   -51562.092    3891.5949    2.3009375   -79961.004 
     800 9.3742484e-21    -792.6216    -792.6216   -51562.092    3891.5949    2.3009375   -79961.004 
Loop time of 0.023936 on 1 procs for 50 steps with 192 atoms

Performance: 18048.103 ns/day, 0.001 hours/ns, 2088.901 timesteps/s
130.6% CPU use with 1 MPI tasks x 1 OpenMP threads

MPI task timing breakdown:
Section |  min time  |  avg time  |  max time  |%varavg| %total
---------------------------------------------------------------
Pair    | 0.0069864  | 0.0069864  | 0.0069864  |   0.0 | 29.19
Neigh   | 0          | 0          | 0          |   0.0 |  0.00
Comm    | 0          | 0          | 0          |   0.0 |  0.00
Output  | 0.015953   | 0.015953   | 0.015953   |   0.0 | 66.65
Modify  | 0.00099707 | 0.00099707 | 0.00099707 |   0.0 |  4.17
Other   |            | 0          |            |       |  0.00

Nlocal:    192 ave 192 max 192 min
Histogram: 1 0 0 0 0 0 0 0 0 0
Nghost:    678 ave 678 max 678 min
Histogram: 1 0 0 0 0 0 0 0 0 0
Neighs:    0 ave 0 max 0 min
Histogram: 1 0 0 0 0 0 0 0 0 0
FullNghs:  6144 ave 6144 max 6144 min
Histogram: 1 0 0 0 0 0 0 0 0 0

Total # of neighbors = 6144
Ave neighs/atom = 32
Neighbor list builds = 0
Dangerous builds = 0

jump            in.lj.for loop
next            index

#change_box all xy final -0.1 z final 0.0 0.5 boundary p p f remap units box \
#change_box all xy scale -0.1 z boundary p p f remap units box
change_box all z delta 0 0.1 boundary p p s remap units box
  orthogonal box = (-1.42846 -1.42846 -4.39172) to (9.42846 9.42846 28.7302)
#change_box all xy final -0.1 z boundary p p f remap units box
#run 0



thermo 10
thermo_style custom step temp pe etotal press vol density c_1[3]
# NVT relaxation
fix 1 all nvt temp 300 300 1

unfix 1

fix 2 all print 100 "${st} ${sigmazz}" append thermo.out screen no title "# step stress "
#dump 103 all xyz 100 si_min_relaxation.xyz

run 50
Per MPI rank memory allocation (min/avg/max) = 4.114 | 4.114 | 4.114 Mbytes
Step Temp PotEng TotEng Press Volume Density c_1[3] 
     800 9.3742484e-21   -791.93553   -791.93553   -54553.429    3904.9437    2.2930719   -84721.119 
     810 9.3742484e-21   -791.93553   -791.93553   -54553.429    3904.9437    2.2930719   -84721.119 
     820 9.3742484e-21   -791.93553   -791.93553   -54553.429    3904.9437    2.2930719   -84721.119 
     830 9.3742484e-21   -791.93553   -791.93553   -54553.429    3904.9437    2.2930719   -84721.119 
     840 9.3742484e-21   -791.93553   -791.93553   -54553.429    3904.9437    2.2930719   -84721.119 
     850 9.3742484e-21   -791.93553   -791.93553   -54553.429    3904.9437    2.2930719   -84721.119 
Loop time of 0.0219409 on 1 procs for 50 steps with 192 atoms

Performance: 19689.214 ns/day, 0.001 hours/ns, 2278.844 timesteps/s
0.0% CPU use with 1 MPI tasks x 1 OpenMP threads

MPI task timing breakdown:
Section |  min time  |  avg time  |  max time  |%varavg| %total
---------------------------------------------------------------
Pair    | 0.0069797  | 0.0069797  | 0.0069797  |   0.0 | 31.81
Neigh   | 0          | 0          | 0          |   0.0 |  0.00
Comm    | 0          | 0          | 0          |   0.0 |  0.00
Output  | 0.014961   | 0.014961   | 0.014961   |   0.0 | 68.19
Modify  | 0          | 0          | 0          |   0.0 |  0.00
Other   |            | 0          |            |       |  0.00

Nlocal:    192 ave 192 max 192 min
Histogram: 1 0 0 0 0 0 0 0 0 0
Nghost:    678 ave 678 max 678 min
Histogram: 1 0 0 0 0 0 0 0 0 0
Neighs:    0 ave 0 max 0 min
Histogram: 1 0 0 0 0 0 0 0 0 0
FullNghs:  6144 ave 6144 max 6144 min
Histogram: 1 0 0 0 0 0 0 0 0 0

Total # of neighbors = 6144
Ave neighs/atom = 32
Neighbor list builds = 0
Dangerous builds = 0

jump            in.lj.for loop
next            index

#change_box all xy final -0.1 z final 0.0 0.5 boundary p p f remap units box \
#change_box all xy scale -0.1 z boundary p p f remap units box
change_box all z delta 0 0.1 boundary p p s remap units box
  orthogonal box = (-1.42846 -1.42846 -4.39836) to (9.42846 9.42846 28.8368)
#change_box all xy final -0.1 z boundary p p f remap units box
#run 0



thermo 10
thermo_style custom step temp pe etotal press vol density c_1[3]
# NVT relaxation
fix 1 all nvt temp 300 300 1

unfix 1

fix 2 all print 100 "${st} ${sigmazz}" append thermo.out screen no title "# step stress "
#dump 103 all xyz 100 si_min_relaxation.xyz

run 50
Per MPI rank memory allocation (min/avg/max) = 4.114 | 4.114 | 4.114 Mbytes
Step Temp PotEng TotEng Press Volume Density c_1[3] 
     850 9.3742484e-21   -791.20969   -791.20969   -57507.549    3918.2978    2.2852568   -89439.183 
     860 9.3742484e-21   -791.20969   -791.20969   -57507.549    3918.2978    2.2852568   -89439.183 
     870 9.3742484e-21   -791.20969   -791.20969   -57507.549    3918.2978    2.2852568   -89439.183 
     880 9.3742484e-21   -791.20969   -791.20969   -57507.549    3918.2978    2.2852568   -89439.183 
     890 9.3742484e-21   -791.20969   -791.20969   -57507.549    3918.2978    2.2852568   -89439.183 
     900 9.3742484e-21   -791.20969   -791.20969   -57507.549    3918.2978    2.2852568   -89439.183 
Loop time of 0.0249341 on 1 procs for 50 steps with 192 atoms

Performance: 17325.703 ns/day, 0.001 hours/ns, 2005.290 timesteps/s
62.7% CPU use with 1 MPI tasks x 1 OpenMP threads

MPI task timing breakdown:
Section |  min time  |  avg time  |  max time  |%varavg| %total
---------------------------------------------------------------
Pair    | 0.0059869  | 0.0059869  | 0.0059869  |   0.0 | 24.01
Neigh   | 0          | 0          | 0          |   0.0 |  0.00
Comm    | 0          | 0          | 0          |   0.0 |  0.00
Output  | 0.018947   | 0.018947   | 0.018947   |   0.0 | 75.99
Modify  | 0          | 0          | 0          |   0.0 |  0.00
Other   |            | 0          |            |       |  0.00

Nlocal:    192 ave 192 max 192 min
Histogram: 1 0 0 0 0 0 0 0 0 0
Nghost:    678 ave 678 max 678 min
Histogram: 1 0 0 0 0 0 0 0 0 0
Neighs:    0 ave 0 max 0 min
Histogram: 1 0 0 0 0 0 0 0 0 0
FullNghs:  5824 ave 5824 max 5824 min
Histogram: 1 0 0 0 0 0 0 0 0 0

Total # of neighbors = 5824
Ave neighs/atom = 30.3333
Neighbor list builds = 0
Dangerous builds = 0

jump            in.lj.for loop
next            index

#change_box all xy final -0.1 z final 0.0 0.5 boundary p p f remap units box \
#change_box all xy scale -0.1 z boundary p p f remap units box
change_box all z delta 0 0.1 boundary p p s remap units box
  orthogonal box = (-1.42846 -1.42846 -4.40502) to (9.42846 9.42846 28.9435)
#change_box all xy final -0.1 z boundary p p f remap units box
#run 0



thermo 10
thermo_style custom step temp pe etotal press vol density c_1[3]
# NVT relaxation
fix 1 all nvt temp 300 300 1

unfix 1

fix 2 all print 100 "${st} ${sigmazz}" append thermo.out screen no title "# step stress "
#dump 103 all xyz 100 si_min_relaxation.xyz

run 50
Per MPI rank memory allocation (min/avg/max) = 4.114 | 4.114 | 4.114 Mbytes
Step Temp PotEng TotEng Press Volume Density c_1[3] 
     900 9.3742484e-21   -790.44439   -790.44439     -60424.9    3931.6573    2.2774917   -94115.229 
     910 9.3742484e-21   -790.44439   -790.44439     -60424.9    3931.6573    2.2774917   -94115.229 
     920 9.3742484e-21   -790.44439   -790.44439     -60424.9    3931.6573    2.2774917   -94115.229 
     930 9.3742484e-21   -790.44439   -790.44439     -60424.9    3931.6573    2.2774917   -94115.229 
     940 9.3742484e-21   -790.44439   -790.44439     -60424.9    3931.6573    2.2774917   -94115.229 
     950 9.3742484e-21   -790.44439   -790.44439     -60424.9    3931.6573    2.2774917   -94115.229 
Loop time of 0.0249331 on 1 procs for 50 steps with 192 atoms

Performance: 17326.366 ns/day, 0.001 hours/ns, 2005.366 timesteps/s
62.7% CPU use with 1 MPI tasks x 1 OpenMP threads

MPI task timing breakdown:
Section |  min time  |  avg time  |  max time  |%varavg| %total
---------------------------------------------------------------
Pair    | 0.0089762  | 0.0089762  | 0.0089762  |   0.0 | 36.00
Neigh   | 0          | 0          | 0          |   0.0 |  0.00
Comm    | 0          | 0          | 0          |   0.0 |  0.00
Output  | 0.015957   | 0.015957   | 0.015957   |   0.0 | 64.00
Modify  | 0          | 0          | 0          |   0.0 |  0.00
Other   |            | 0          |            |       |  0.00

Nlocal:    192 ave 192 max 192 min
Histogram: 1 0 0 0 0 0 0 0 0 0
Nghost:    678 ave 678 max 678 min
Histogram: 1 0 0 0 0 0 0 0 0 0
Neighs:    0 ave 0 max 0 min
Histogram: 1 0 0 0 0 0 0 0 0 0
FullNghs:  5824 ave 5824 max 5824 min
Histogram: 1 0 0 0 0 0 0 0 0 0

Total # of neighbors = 5824
Ave neighs/atom = 30.3333
Neighbor list builds = 0
Dangerous builds = 0

jump            in.lj.for loop
next            index

#change_box all xy final -0.1 z final 0.0 0.5 boundary p p f remap units box \
#change_box all xy scale -0.1 z boundary p p f remap units box
change_box all z delta 0 0.1 boundary p p s remap units box
  orthogonal box = (-1.42846 -1.42846 -4.4117) to (9.42846 9.42846 29.0501)
#change_box all xy final -0.1 z boundary p p f remap units box
#run 0



thermo 10
thermo_style custom step temp pe etotal press vol density c_1[3]
# NVT relaxation
fix 1 all nvt temp 300 300 1

unfix 1

fix 2 all print 100 "${st} ${sigmazz}" append thermo.out screen no title "# step stress "
#dump 103 all xyz 100 si_min_relaxation.xyz

run 50
Per MPI rank memory allocation (min/avg/max) = 4.114 | 4.114 | 4.114 Mbytes
Step Temp PotEng TotEng Press Volume Density c_1[3] 
     950 9.3742484e-21   -789.63996   -789.63996   -63305.921    3945.0221    2.2697761     -98749.3 
     960 9.3742484e-21   -789.63996   -789.63996   -63305.921    3945.0221    2.2697761     -98749.3 
     970 9.3742484e-21   -789.63996   -789.63996   -63305.921    3945.0221    2.2697761     -98749.3 
     980 9.3742484e-21   -789.63996   -789.63996   -63305.921    3945.0221    2.2697761     -98749.3 
     990 9.3742484e-21   -789.63996   -789.63996   -63305.921    3945.0221    2.2697761     -98749.3 
    1000 9.3742484e-21   -789.63996   -789.63996   -63305.921    3945.0221    2.2697761     -98749.3 
Loop time of 0.022449 on 1 procs for 50 steps with 192 atoms

Performance: 19243.605 ns/day, 0.001 hours/ns, 2227.269 timesteps/s
0.0% CPU use with 1 MPI tasks x 1 OpenMP threads

MPI task timing breakdown:
Section |  min time  |  avg time  |  max time  |%varavg| %total
---------------------------------------------------------------
Pair    | 0.0049846  | 0.0049846  | 0.0049846  |   0.0 | 22.20
Neigh   | 0          | 0          | 0          |   0.0 |  0.00
Comm    | 0.00099707 | 0.00099707 | 0.00099707 |   0.0 |  4.44
Output  | 0.01547    | 0.01547    | 0.01547    |   0.0 | 68.91
Modify  | 0.00099707 | 0.00099707 | 0.00099707 |   0.0 |  4.44
Other   |            | 0          |            |       |  0.00

Nlocal:    192 ave 192 max 192 min
Histogram: 1 0 0 0 0 0 0 0 0 0
Nghost:    678 ave 678 max 678 min
Histogram: 1 0 0 0 0 0 0 0 0 0
Neighs:    0 ave 0 max 0 min
Histogram: 1 0 0 0 0 0 0 0 0 0
FullNghs:  5824 ave 5824 max 5824 min
Histogram: 1 0 0 0 0 0 0 0 0 0

Total # of neighbors = 5824
Ave neighs/atom = 30.3333
Neighbor list builds = 0
Dangerous builds = 0

jump            in.lj.for loop
next            index

#change_box all xy final -0.1 z final 0.0 0.5 boundary p p f remap units box \
#change_box all xy scale -0.1 z boundary p p f remap units box
change_box all z delta 0 0.1 boundary p p s remap units box
  orthogonal box = (-1.42846 -1.42846 -4.4184) to (9.42846 9.42846 29.1568)
#change_box all xy final -0.1 z boundary p p f remap units box
#run 0



thermo 10
thermo_style custom step temp pe etotal press vol density c_1[3]
# NVT relaxation
fix 1 all nvt temp 300 300 1

unfix 1

fix 2 all print 100 "${st} ${sigmazz}" append thermo.out screen no title "# step stress "
#dump 103 all xyz 100 si_min_relaxation.xyz

run 50
Per MPI rank memory allocation (min/avg/max) = 4.114 | 4.114 | 4.114 Mbytes
Step Temp PotEng TotEng Press Volume Density c_1[3] 
    1000 9.3742484e-21   -788.79671   -788.79671   -66151.052    3958.3922    2.2621095   -103341.45 
    1010 9.3742484e-21   -788.79671   -788.79671   -66151.052    3958.3922    2.2621095   -103341.45 
    1020 9.3742484e-21   -788.79671   -788.79671   -66151.052    3958.3922    2.2621095   -103341.45 
    1030 9.3742484e-21   -788.79671   -788.79671   -66151.052    3958.3922    2.2621095   -103341.45 
    1040 9.3742484e-21   -788.79671   -788.79671   -66151.052    3958.3922    2.2621095   -103341.45 
    1050 9.3742484e-21   -788.79671   -788.79671   -66151.052    3958.3922    2.2621095   -103341.45 
Loop time of 0.0229392 on 1 procs for 50 steps with 192 atoms

Performance: 18832.387 ns/day, 0.001 hours/ns, 2179.674 timesteps/s
68.1% CPU use with 1 MPI tasks x 1 OpenMP threads

MPI task timing breakdown:
Section |  min time  |  avg time  |  max time  |%varavg| %total
---------------------------------------------------------------
Pair    | 0.0069852  | 0.0069852  | 0.0069852  |   0.0 | 30.45
Neigh   | 0          | 0          | 0          |   0.0 |  0.00
Comm    | 0          | 0          | 0          |   0.0 |  0.00
Output  | 0.015954   | 0.015954   | 0.015954   |   0.0 | 69.55
Modify  | 0          | 0          | 0          |   0.0 |  0.00
Other   |            | 0          |            |       |  0.00

Nlocal:    192 ave 192 max 192 min
Histogram: 1 0 0 0 0 0 0 0 0 0
Nghost:    678 ave 678 max 678 min
Histogram: 1 0 0 0 0 0 0 0 0 0
Neighs:    0 ave 0 max 0 min
Histogram: 1 0 0 0 0 0 0 0 0 0
FullNghs:  5824 ave 5824 max 5824 min
Histogram: 1 0 0 0 0 0 0 0 0 0

Total # of neighbors = 5824
Ave neighs/atom = 30.3333
Neighbor list builds = 0
Dangerous builds = 0

jump            in.lj.for loop
next            index

#change_box all xy final -0.1 z final 0.0 0.5 boundary p p f remap units box \
#change_box all xy scale -0.1 z boundary p p f remap units box
change_box all z delta 0 0.1 boundary p p s remap units box
  orthogonal box = (-1.42846 -1.42846 -4.42513) to (9.42846 9.42846 29.2636)
#change_box all xy final -0.1 z boundary p p f remap units box
#run 0



thermo 10
thermo_style custom step temp pe etotal press vol density c_1[3]
# NVT relaxation
fix 1 all nvt temp 300 300 1

unfix 1

fix 2 all print 100 "${st} ${sigmazz}" append thermo.out screen no title "# step stress "
#dump 103 all xyz 100 si_min_relaxation.xyz

run 50
Per MPI rank memory allocation (min/avg/max) = 4.114 | 4.114 | 4.114 Mbytes
Step Temp PotEng TotEng Press Volume Density c_1[3] 
    1050 9.3742484e-21   -787.91495   -787.91495   -68960.726    3971.7677    2.2544915   -107891.74 
    1060 9.3742484e-21   -787.91495   -787.91495   -68960.726    3971.7677    2.2544915   -107891.74 
    1070 9.3742484e-21   -787.91495   -787.91495   -68960.726    3971.7677    2.2544915   -107891.74 
    1080 9.3742484e-21   -787.91495   -787.91495   -68960.726    3971.7677    2.2544915   -107891.74 
    1090 9.3742484e-21   -787.91495   -787.91495   -68960.726    3971.7677    2.2544915   -107891.74 
    1100 9.3742484e-21   -787.91495   -787.91495   -68960.726    3971.7677    2.2544915   -107891.74 
Loop time of 0.0219409 on 1 procs for 50 steps with 192 atoms

Performance: 19689.214 ns/day, 0.001 hours/ns, 2278.844 timesteps/s
71.2% CPU use with 1 MPI tasks x 1 OpenMP threads

MPI task timing breakdown:
Section |  min time  |  avg time  |  max time  |%varavg| %total
---------------------------------------------------------------
Pair    | 0.0049884  | 0.0049884  | 0.0049884  |   0.0 | 22.74
Neigh   | 0          | 0          | 0          |   0.0 |  0.00
Comm    | 0.00099707 | 0.00099707 | 0.00099707 |   0.0 |  4.54
Output  | 0.015955   | 0.015955   | 0.015955   |   0.0 | 72.72
Modify  | 0          | 0          | 0          |   0.0 |  0.00
Other   |            | 0          |            |       |  0.00

Nlocal:    192 ave 192 max 192 min
Histogram: 1 0 0 0 0 0 0 0 0 0
Nghost:    678 ave 678 max 678 min
Histogram: 1 0 0 0 0 0 0 0 0 0
Neighs:    0 ave 0 max 0 min
Histogram: 1 0 0 0 0 0 0 0 0 0
FullNghs:  5824 ave 5824 max 5824 min
Histogram: 1 0 0 0 0 0 0 0 0 0

Total # of neighbors = 5824
Ave neighs/atom = 30.3333
Neighbor list builds = 0
Dangerous builds = 0

jump            in.lj.for loop
next            index

#change_box all xy final -0.1 z final 0.0 0.5 boundary p p f remap units box \
#change_box all xy scale -0.1 z boundary p p f remap units box
change_box all z delta 0 0.1 boundary p p s remap units box
  orthogonal box = (-1.42846 -1.42846 -4.43187) to (9.42846 9.42846 29.3703)
#change_box all xy final -0.1 z boundary p p f remap units box
#run 0



thermo 10
thermo_style custom step temp pe etotal press vol density c_1[3]
# NVT relaxation
fix 1 all nvt temp 300 300 1

unfix 1

fix 2 all print 100 "${st} ${sigmazz}" append thermo.out screen no title "# step stress "
#dump 103 all xyz 100 si_min_relaxation.xyz

run 50
Per MPI rank memory allocation (min/avg/max) = 4.114 | 4.114 | 4.114 Mbytes
Step Temp PotEng TotEng Press Volume Density c_1[3] 
    1100 9.3742484e-21   -786.99502   -786.99502   -71735.372    3985.1485    2.2469217   -112400.25 
    1110 9.3742484e-21   -786.99502   -786.99502   -71735.372    3985.1485    2.2469217   -112400.25 
    1120 9.3742484e-21   -786.99502   -786.99502   -71735.372    3985.1485    2.2469217   -112400.25 
    1130 9.3742484e-21   -786.99502   -786.99502   -71735.372    3985.1485    2.2469217   -112400.25 
    1140 9.3742484e-21   -786.99502   -786.99502   -71735.372    3985.1485    2.2469217   -112400.25 
    1150 9.3742484e-21   -786.99502   -786.99502   -71735.372    3985.1485    2.2469217   -112400.25 
Loop time of 0.023936 on 1 procs for 50 steps with 192 atoms

Performance: 18048.103 ns/day, 0.001 hours/ns, 2088.901 timesteps/s
65.3% CPU use with 1 MPI tasks x 1 OpenMP threads

MPI task timing breakdown:
Section |  min time  |  avg time  |  max time  |%varavg| %total
---------------------------------------------------------------
Pair    | 0.006984   | 0.006984   | 0.006984   |   0.0 | 29.18
Neigh   | 0          | 0          | 0          |   0.0 |  0.00
Comm    | 0          | 0          | 0          |   0.0 |  0.00
Output  | 0.016952   | 0.016952   | 0.016952   |   0.0 | 70.82
Modify  | 0          | 0          | 0          |   0.0 |  0.00
Other   |            | 0          |            |       |  0.00

Nlocal:    192 ave 192 max 192 min
Histogram: 1 0 0 0 0 0 0 0 0 0
Nghost:    678 ave 678 max 678 min
Histogram: 1 0 0 0 0 0 0 0 0 0
Neighs:    0 ave 0 max 0 min
Histogram: 1 0 0 0 0 0 0 0 0 0
FullNghs:  5824 ave 5824 max 5824 min
Histogram: 1 0 0 0 0 0 0 0 0 0

Total # of neighbors = 5824
Ave neighs/atom = 30.3333
Neighbor list builds = 0
Dangerous builds = 0

jump            in.lj.for loop
next            index

#change_box all xy final -0.1 z final 0.0 0.5 boundary p p f remap units box \
#change_box all xy scale -0.1 z boundary p p f remap units box
change_box all z delta 0 0.1 boundary p p s remap units box
  orthogonal box = (-1.42846 -1.42846 -4.43865) to (9.42846 9.42846 29.4771)
#change_box all xy final -0.1 z boundary p p f remap units box
#run 0



thermo 10
thermo_style custom step temp pe etotal press vol density c_1[3]
# NVT relaxation
fix 1 all nvt temp 300 300 1

unfix 1

fix 2 all print 100 "${st} ${sigmazz}" append thermo.out screen no title "# step stress "
#dump 103 all xyz 100 si_min_relaxation.xyz

run 50
Per MPI rank memory allocation (min/avg/max) = 4.114 | 4.114 | 4.114 Mbytes
Step Temp PotEng TotEng Press Volume Density c_1[3] 
    1150 9.3742484e-21   -786.03723   -786.03723   -74475.419    3998.5347    2.2393995   -116867.05 
    1160 9.3742484e-21   -786.03723   -786.03723   -74475.419    3998.5347    2.2393995   -116867.05 
    1170 9.3742484e-21   -786.03723   -786.03723   -74475.419    3998.5347    2.2393995   -116867.05 
    1180 9.3742484e-21   -786.03723   -786.03723   -74475.419    3998.5347    2.2393995   -116867.05 
    1190 9.3742484e-21   -786.03723   -786.03723   -74475.419    3998.5347    2.2393995   -116867.05 
    1200 9.3742484e-21   -786.03723   -786.03723   -74475.419    3998.5347    2.2393995   -116867.05 
Loop time of 0.023937 on 1 procs for 50 steps with 192 atoms

Performance: 18047.384 ns/day, 0.001 hours/ns, 2088.818 timesteps/s
0.0% CPU use with 1 MPI tasks x 1 OpenMP threads

MPI task timing breakdown:
Section |  min time  |  avg time  |  max time  |%varavg| %total
---------------------------------------------------------------
Pair    | 0.0079765  | 0.0079765  | 0.0079765  |   0.0 | 33.32
Neigh   | 0          | 0          | 0          |   0.0 |  0.00
Comm    | 0          | 0          | 0          |   0.0 |  0.00
Output  | 0.01596    | 0.01596    | 0.01596    |   0.0 | 66.68
Modify  | 0          | 0          | 0          |   0.0 |  0.00
Other   |            | 0          |            |       |  0.00

Nlocal:    192 ave 192 max 192 min
Histogram: 1 0 0 0 0 0 0 0 0 0
Nghost:    678 ave 678 max 678 min
Histogram: 1 0 0 0 0 0 0 0 0 0
Neighs:    0 ave 0 max 0 min
Histogram: 1 0 0 0 0 0 0 0 0 0
FullNghs:  5824 ave 5824 max 5824 min
Histogram: 1 0 0 0 0 0 0 0 0 0

Total # of neighbors = 5824
Ave neighs/atom = 30.3333
Neighbor list builds = 0
Dangerous builds = 0

jump            in.lj.for loop
next            index

#change_box all xy final -0.1 z final 0.0 0.5 boundary p p f remap units box \
#change_box all xy scale -0.1 z boundary p p f remap units box
change_box all z delta 0 0.1 boundary p p s remap units box
  orthogonal box = (-1.42846 -1.42846 -4.44544) to (9.42846 9.42846 29.5839)
#change_box all xy final -0.1 z boundary p p f remap units box
#run 0



thermo 10
thermo_style custom step temp pe etotal press vol density c_1[3]
# NVT relaxation
fix 1 all nvt temp 300 300 1

unfix 1

fix 2 all print 100 "${st} ${sigmazz}" append thermo.out screen no title "# step stress "
#dump 103 all xyz 100 si_min_relaxation.xyz

run 50
Per MPI rank memory allocation (min/avg/max) = 4.114 | 4.114 | 4.114 Mbytes
Step Temp PotEng TotEng Press Volume Density c_1[3] 
    1200 9.3742484e-21   -785.04189   -785.04189   -77181.288    4011.9263    2.2319245   -121292.25 
    1210 9.3742484e-21   -785.04189   -785.04189   -77181.288    4011.9263    2.2319245   -121292.25 
    1220 9.3742484e-21   -785.04189   -785.04189   -77181.288    4011.9263    2.2319245   -121292.25 
    1230 9.3742484e-21   -785.04189   -785.04189   -77181.288    4011.9263    2.2319245   -121292.25 
    1240 9.3742484e-21   -785.04189   -785.04189   -77181.288    4011.9263    2.2319245   -121292.25 
    1250 9.3742484e-21   -785.04189   -785.04189   -77181.288    4011.9263    2.2319245   -121292.25 
Loop time of 0.02194 on 1 procs for 50 steps with 192 atoms

Performance: 19690.070 ns/day, 0.001 hours/ns, 2278.943 timesteps/s
0.0% CPU use with 1 MPI tasks x 1 OpenMP threads

MPI task timing breakdown:
Section |  min time  |  avg time  |  max time  |%varavg| %total
---------------------------------------------------------------
Pair    | 0.0049844  | 0.0049844  | 0.0049844  |   0.0 | 22.72
Neigh   | 0          | 0          | 0          |   0.0 |  0.00
Comm    | 0          | 0          | 0          |   0.0 |  0.00
Output  | 0.015959   | 0.015959   | 0.015959   |   0.0 | 72.74
Modify  | 0          | 0          | 0          |   0.0 |  0.00
Other   |            | 0.0009971  |            |       |  4.54

Nlocal:    192 ave 192 max 192 min
Histogram: 1 0 0 0 0 0 0 0 0 0
Nghost:    678 ave 678 max 678 min
Histogram: 1 0 0 0 0 0 0 0 0 0
Neighs:    0 ave 0 max 0 min
Histogram: 1 0 0 0 0 0 0 0 0 0
FullNghs:  5824 ave 5824 max 5824 min
Histogram: 1 0 0 0 0 0 0 0 0 0

Total # of neighbors = 5824
Ave neighs/atom = 30.3333
Neighbor list builds = 0
Dangerous builds = 0

jump            in.lj.for loop
next            index

#change_box all xy final -0.1 z final 0.0 0.5 boundary p p f remap units box \
#change_box all xy scale -0.1 z boundary p p f remap units box
change_box all z delta 0 0.1 boundary p p s remap units box
  orthogonal box = (-1.42846 -1.42846 -4.45226) to (9.42846 9.42846 29.6907)
#change_box all xy final -0.1 z boundary p p f remap units box
#run 0



thermo 10
thermo_style custom step temp pe etotal press vol density c_1[3]
# NVT relaxation
fix 1 all nvt temp 300 300 1

unfix 1

fix 2 all print 100 "${st} ${sigmazz}" append thermo.out screen no title "# step stress "
#dump 103 all xyz 100 si_min_relaxation.xyz

run 50
Per MPI rank memory allocation (min/avg/max) = 4.114 | 4.114 | 4.114 Mbytes
Step Temp PotEng TotEng Press Volume Density c_1[3] 
    1250 9.3742484e-21   -784.00932   -784.00932   -79853.398    4025.3232    2.2244963   -125675.95 
    1260 9.3742484e-21   -784.00932   -784.00932   -79853.398    4025.3232    2.2244963   -125675.95 
    1270 9.3742484e-21   -784.00932   -784.00932   -79853.398    4025.3232    2.2244963   -125675.95 
    1280 9.3742484e-21   -784.00932   -784.00932   -79853.398    4025.3232    2.2244963   -125675.95 
    1290 9.3742484e-21   -784.00932   -784.00932   -79853.398    4025.3232    2.2244963   -125675.95 
    1300 9.3742484e-21   -784.00932   -784.00932   -79853.398    4025.3232    2.2244963   -125675.95 
Loop time of 0.022939 on 1 procs for 50 steps with 192 atoms

Performance: 18832.583 ns/day, 0.001 hours/ns, 2179.697 timesteps/s
0.0% CPU use with 1 MPI tasks x 1 OpenMP threads

MPI task timing breakdown:
Section |  min time  |  avg time  |  max time  |%varavg| %total
---------------------------------------------------------------
Pair    | 0.0069818  | 0.0069818  | 0.0069818  |   0.0 | 30.44
Neigh   | 0          | 0          | 0          |   0.0 |  0.00
Comm    | 0          | 0          | 0          |   0.0 |  0.00
Output  | 0.015957   | 0.015957   | 0.015957   |   0.0 | 69.56
Modify  | 0          | 0          | 0          |   0.0 |  0.00
Other   |            | 0          |            |       |  0.00

Nlocal:    192 ave 192 max 192 min
Histogram: 1 0 0 0 0 0 0 0 0 0
Nghost:    678 ave 678 max 678 min
Histogram: 1 0 0 0 0 0 0 0 0 0
Neighs:    0 ave 0 max 0 min
Histogram: 1 0 0 0 0 0 0 0 0 0
FullNghs:  5824 ave 5824 max 5824 min
Histogram: 1 0 0 0 0 0 0 0 0 0

Total # of neighbors = 5824
Ave neighs/atom = 30.3333
Neighbor list builds = 0
Dangerous builds = 0

jump            in.lj.for loop
next            index

#change_box all xy final -0.1 z final 0.0 0.5 boundary p p f remap units box \
#change_box all xy scale -0.1 z boundary p p f remap units box
change_box all z delta 0 0.1 boundary p p s remap units box
  orthogonal box = (-1.42846 -1.42846 -4.45909) to (9.42846 9.42846 29.7975)
#change_box all xy final -0.1 z boundary p p f remap units box
#run 0



thermo 10
thermo_style custom step temp pe etotal press vol density c_1[3]
# NVT relaxation
fix 1 all nvt temp 300 300 1

unfix 1

fix 2 all print 100 "${st} ${sigmazz}" append thermo.out screen no title "# step stress "
#dump 103 all xyz 100 si_min_relaxation.xyz

run 50
Per MPI rank memory allocation (min/avg/max) = 4.114 | 4.114 | 4.114 Mbytes
Step Temp PotEng TotEng Press Volume Density c_1[3] 
    1300 9.3742484e-21   -782.93985   -782.93985   -82492.165    4038.7254    2.2171145   -130018.25 
    1310 9.3742484e-21   -782.93985   -782.93985   -82492.165    4038.7254    2.2171145   -130018.25 
    1320 9.3742484e-21   -782.93985   -782.93985   -82492.165    4038.7254    2.2171145   -130018.25 
    1330 9.3742484e-21   -782.93985   -782.93985   -82492.165    4038.7254    2.2171145   -130018.25 
    1340 9.3742484e-21   -782.93985   -782.93985   -82492.165    4038.7254    2.2171145   -130018.25 
    1350 9.3742484e-21   -782.93985   -782.93985   -82492.165    4038.7254    2.2171145   -130018.25 
Loop time of 0.021925 on 1 procs for 50 steps with 192 atoms

Performance: 19703.559 ns/day, 0.001 hours/ns, 2280.505 timesteps/s
71.3% CPU use with 1 MPI tasks x 1 OpenMP threads

MPI task timing breakdown:
Section |  min time  |  avg time  |  max time  |%varavg| %total
---------------------------------------------------------------
Pair    | 0.0069647  | 0.0069647  | 0.0069647  |   0.0 | 31.77
Neigh   | 0          | 0          | 0          |   0.0 |  0.00
Comm    | 0          | 0          | 0          |   0.0 |  0.00
Output  | 0.01496    | 0.01496    | 0.01496    |   0.0 | 68.23
Modify  | 0          | 0          | 0          |   0.0 |  0.00
Other   |            | 0          |            |       |  0.00

Nlocal:    192 ave 192 max 192 min
Histogram: 1 0 0 0 0 0 0 0 0 0
Nghost:    678 ave 678 max 678 min
Histogram: 1 0 0 0 0 0 0 0 0 0
Neighs:    0 ave 0 max 0 min
Histogram: 1 0 0 0 0 0 0 0 0 0
FullNghs:  5824 ave 5824 max 5824 min
Histogram: 1 0 0 0 0 0 0 0 0 0

Total # of neighbors = 5824
Ave neighs/atom = 30.3333
Neighbor list builds = 0
Dangerous builds = 0

jump            in.lj.for loop
next            index

#change_box all xy final -0.1 z final 0.0 0.5 boundary p p f remap units box \
#change_box all xy scale -0.1 z boundary p p f remap units box
change_box all z delta 0 0.1 boundary p p s remap units box
  orthogonal box = (-1.42846 -1.42846 -4.46596) to (9.42846 9.42846 29.9044)
#change_box all xy final -0.1 z boundary p p f remap units box
#run 0



thermo 10
thermo_style custom step temp pe etotal press vol density c_1[3]
# NVT relaxation
fix 1 all nvt temp 300 300 1

unfix 1

fix 2 all print 100 "${st} ${sigmazz}" append thermo.out screen no title "# step stress "
#dump 103 all xyz 100 si_min_relaxation.xyz

run 50
Per MPI rank memory allocation (min/avg/max) = 4.114 | 4.114 | 4.114 Mbytes
Step Temp PotEng TotEng Press Volume Density c_1[3] 
    1350 9.3742484e-21   -781.83378   -781.83378       -85098    4052.1331    2.2097785   -134319.28 
    1360 9.3742484e-21   -781.83378   -781.83378       -85098    4052.1331    2.2097785   -134319.28 
    1370 9.3742484e-21   -781.83378   -781.83378       -85098    4052.1331    2.2097785   -134319.28 
    1380 9.3742484e-21   -781.83378   -781.83378       -85098    4052.1331    2.2097785   -134319.28 
    1390 9.3742484e-21   -781.83378   -781.83378       -85098    4052.1331    2.2097785   -134319.28 
    1400 9.3742484e-21   -781.83378   -781.83378       -85098    4052.1331    2.2097785   -134319.28 
Loop time of 0.0229392 on 1 procs for 50 steps with 192 atoms

Performance: 18832.387 ns/day, 0.001 hours/ns, 2179.674 timesteps/s
68.1% CPU use with 1 MPI tasks x 1 OpenMP threads

MPI task timing breakdown:
Section |  min time  |  avg time  |  max time  |%varavg| %total
---------------------------------------------------------------
Pair    | 0.0079789  | 0.0079789  | 0.0079789  |   0.0 | 34.78
Neigh   | 0          | 0          | 0          |   0.0 |  0.00
Comm    | 0          | 0          | 0          |   0.0 |  0.00
Output  | 0.01496    | 0.01496    | 0.01496    |   0.0 | 65.22
Modify  | 0          | 0          | 0          |   0.0 |  0.00
Other   |            | 0          |            |       |  0.00

Nlocal:    192 ave 192 max 192 min
Histogram: 1 0 0 0 0 0 0 0 0 0
Nghost:    678 ave 678 max 678 min
Histogram: 1 0 0 0 0 0 0 0 0 0
Neighs:    0 ave 0 max 0 min
Histogram: 1 0 0 0 0 0 0 0 0 0
FullNghs:  5824 ave 5824 max 5824 min
Histogram: 1 0 0 0 0 0 0 0 0 0

Total # of neighbors = 5824
Ave neighs/atom = 30.3333
Neighbor list builds = 0
Dangerous builds = 0

jump            in.lj.for loop
next            index

#change_box all xy final -0.1 z final 0.0 0.5 boundary p p f remap units box \
#change_box all xy scale -0.1 z boundary p p f remap units box
change_box all z delta 0 0.1 boundary p p s remap units box
  orthogonal box = (-1.42846 -1.42846 -4.47284) to (9.42846 9.42846 30.0113)
#change_box all xy final -0.1 z boundary p p f remap units box
#run 0



thermo 10
thermo_style custom step temp pe etotal press vol density c_1[3]
# NVT relaxation
fix 1 all nvt temp 300 300 1

unfix 1

fix 2 all print 100 "${st} ${sigmazz}" append thermo.out screen no title "# step stress "
#dump 103 all xyz 100 si_min_relaxation.xyz

run 50
Per MPI rank memory allocation (min/avg/max) = 4.114 | 4.114 | 4.114 Mbytes
Step Temp PotEng TotEng Press Volume Density c_1[3] 
    1400 9.3742484e-21   -780.69143   -780.69143    -87671.31     4065.546    2.2024881   -138579.17 
    1410 9.3742484e-21   -780.69143   -780.69143    -87671.31     4065.546    2.2024881   -138579.17 
    1420 9.3742484e-21   -780.69143   -780.69143    -87671.31     4065.546    2.2024881   -138579.17 
    1430 9.3742484e-21   -780.69143   -780.69143    -87671.31     4065.546    2.2024881   -138579.17 
    1440 9.3742484e-21   -780.69143   -780.69143    -87671.31     4065.546    2.2024881   -138579.17 
    1450 9.3742484e-21   -780.69143   -780.69143    -87671.31     4065.546    2.2024881   -138579.17 
Loop time of 0.024935 on 1 procs for 50 steps with 192 atoms

[...]

#change_box all xy final -0.1 z final 0.0 0.5 boundary p p f remap units box \
#change_box all xy scale -0.1 z boundary p p f remap units box
change_box all z delta 0 0.1 boundary p p s remap units box
  orthogonal box = (-1.42846 -1.42846 -4.57162) to (9.42846 9.42846 31.5101)
#change_box all xy final -0.1 z boundary p p f remap units box
#run 0



thermo 10
thermo_style custom step temp pe etotal press vol density c_1[3]
# NVT relaxation
fix 1 all nvt temp 300 300 1

unfix 1

fix 2 all print 100 "${st} ${sigmazz}" append thermo.out screen no title "# step stress "
#dump 103 all xyz 100 si_min_relaxation.xyz

run 50
Per MPI rank memory allocation (min/avg/max) = 4.114 | 4.114 | 4.114 Mbytes
Step Temp PotEng TotEng Press Volume Density c_1[3] 
    2100 9.3742484e-21   -761.06418   -761.06418   -120502.22    4253.8923    2.1049703   -193990.74 
    2110 9.3742484e-21   -761.06418   -761.06418   -120502.22    4253.8923    2.1049703   -193990.74 
    2120 9.3742484e-21   -761.06418   -761.06418   -120502.22    4253.8923    2.1049703   -193990.74 
    2130 9.3742484e-21   -761.06418   -761.06418   -120502.22    4253.8923    2.1049703   -193990.74 
    2140 9.3742484e-21   -761.06418   -761.06418   -120502.22    4253.8923    2.1049703   -193990.74 
    2150 9.3742484e-21   -761.06418   -761.06418   -120502.22    4253.8923    2.1049703   -193990.74 
Loop time of 0.0269279 on 1 procs for 50 steps with 192 atoms

Performance: 16042.812 ns/day, 0.001 hours/ns, 1856.807 timesteps/s
116.1% CPU use with 1 MPI tasks x 1 OpenMP threads

MPI task timing breakdown:
Section |  min time  |  avg time  |  max time  |%varavg| %total
---------------------------------------------------------------
Pair    | 0.0079811  | 0.0079811  | 0.0079811  |   0.0 | 29.64
Neigh   | 0          | 0          | 0          |   0.0 |  0.00
Comm    | 0          | 0          | 0          |   0.0 |  0.00
Output  | 0.018947   | 0.018947   | 0.018947   |   0.0 | 70.36
Modify  | 0          | 0          | 0          |   0.0 |  0.00
Other   |            | 0          |            |       |  0.00

Nlocal:    192 ave 192 max 192 min
Histogram: 1 0 0 0 0 0 0 0 0 0
Nghost:    678 ave 678 max 678 min
Histogram: 1 0 0 0 0 0 0 0 0 0
Neighs:    0 ave 0 max 0 min
Histogram: 1 0 0 0 0 0 0 0 0 0
FullNghs:  5824 ave 5824 max 5824 min
Histogram: 1 0 0 0 0 0 0 0 0 0

Total # of neighbors = 5824
Ave neighs/atom = 30.3333
Neighbor list builds = 0
Dangerous builds = 0

jump            in.lj.for loop
next            index

#change_box all xy final -0.1 z final 0.0 0.5 boundary p p f remap units box \
#change_box all xy scale -0.1 z boundary p p f remap units box
change_box all z delta 0 0.1 boundary p p s remap units box
  orthogonal box = (-1.42846 -1.42846 -4.57885) to (9.42846 9.42846 31.6173)
#change_box all xy final -0.1 z boundary p p f remap units box
#run 0



thermo 10
thermo_style custom step temp pe etotal press vol density c_1[3]
# NVT relaxation
fix 1 all nvt temp 300 300 1

unfix 1

fix 2 all print 100 "${st} ${sigmazz}" append thermo.out screen no title "# step stress "
#dump 103 all xyz 100 si_min_relaxation.xyz

run 50
Per MPI rank memory allocation (min/avg/max) = 4.114 | 4.114 | 4.114 Mbytes
Step Temp PotEng TotEng Press Volume Density c_1[3] 
    2150 9.3742484e-21   -759.41491   -759.41491    -122634.1     4267.386    2.0983142   -197654.74 
    2160 9.3742484e-21   -759.41491   -759.41491    -122634.1     4267.386    2.0983142   -197654.74 
    2170 9.3742484e-21   -759.41491   -759.41491    -122634.1     4267.386    2.0983142   -197654.74 
    2180 9.3742484e-21   -759.41491   -759.41491    -122634.1     4267.386    2.0983142   -197654.74 
    2190 9.3742484e-21   -759.41491   -759.41491    -122634.1     4267.386    2.0983142   -197654.74 
    2200 9.3742484e-21   -759.41491   -759.41491    -122634.1     4267.386    2.0983142   -197654.74 
Loop time of 0.022939 on 1 procs for 50 steps with 192 atoms

Performance: 18832.583 ns/day, 0.001 hours/ns, 2179.697 timesteps/s
68.1% CPU use with 1 MPI tasks x 1 OpenMP threads

MPI task timing breakdown:
Section |  min time  |  avg time  |  max time  |%varavg| %total
---------------------------------------------------------------
Pair    | 0.0069816  | 0.0069816  | 0.0069816  |   0.0 | 30.44
Neigh   | 0          | 0          | 0          |   0.0 |  0.00
Comm    | 0          | 0          | 0          |   0.0 |  0.00
Output  | 0.015957   | 0.015957   | 0.015957   |   0.0 | 69.56
Modify  | 0          | 0          | 0          |   0.0 |  0.00
Other   |            | 0          |            |       |  0.00

Nlocal:    192 ave 192 max 192 min
Histogram: 1 0 0 0 0 0 0 0 0 0
Nghost:    678 ave 678 max 678 min
Histogram: 1 0 0 0 0 0 0 0 0 0
Neighs:    0 ave 0 max 0 min
Histogram: 1 0 0 0 0 0 0 0 0 0
FullNghs:  5824 ave 5824 max 5824 min
Histogram: 1 0 0 0 0 0 0 0 0 0

Total # of neighbors = 5824
Ave neighs/atom = 30.3333
Neighbor list builds = 0
Dangerous builds = 0

jump            in.lj.for loop
next            index

#change_box all xy final -0.1 z final 0.0 0.5 boundary p p f remap units box \
#change_box all xy scale -0.1 z boundary p p f remap units box
change_box all z delta 0 0.1 boundary p p s remap units box
  orthogonal box = (-1.42846 -1.42846 -4.5861) to (9.42846 9.42846 31.7245)
#change_box all xy final -0.1 z boundary p p f remap units box
#run 0



thermo 10
thermo_style custom step temp pe etotal press vol density c_1[3]
# NVT relaxation
fix 1 all nvt temp 300 300 1

unfix 1

fix 2 all print 100 "${st} ${sigmazz}" append thermo.out screen no title "# step stress "
#dump 103 all xyz 100 si_min_relaxation.xyz

run 50
Per MPI rank memory allocation (min/avg/max) = 4.114 | 4.114 | 4.114 Mbytes
Step Temp PotEng TotEng Press Volume Density c_1[3] 
    2200 9.3742484e-21   -757.73427   -757.73427   -124739.49     4280.885    2.0916975   -201280.76 
    2210 9.3742484e-21   -757.73427   -757.73427   -124739.49     4280.885    2.0916975   -201280.76 
    2220 9.3742484e-21   -757.73427   -757.73427   -124739.49     4280.885    2.0916975   -201280.76 
    2230 9.3742484e-21   -757.73427   -757.73427   -124739.49     4280.885    2.0916975   -201280.76 
    2240 9.3742484e-21   -757.73427   -757.73427   -124739.49     4280.885    2.0916975   -201280.76 
    2250 9.3742484e-21   -757.73427   -757.73427   -124739.49     4280.885    2.0916975   -201280.76 
Loop time of 0.02494 on 1 procs for 50 steps with 192 atoms

Performance: 17321.562 ns/day, 0.001 hours/ns, 2004.810 timesteps/s
62.7% CPU use with 1 MPI tasks x 1 OpenMP threads

MPI task timing breakdown:
Section |  min time  |  avg time  |  max time  |%varavg| %total
---------------------------------------------------------------
Pair    | 0.0080211  | 0.0080211  | 0.0080211  |   0.0 | 32.16
Neigh   | 0          | 0          | 0          |   0.0 |  0.00
Comm    | 0          | 0          | 0          |   0.0 |  0.00
Output  | 0.016919   | 0.016919   | 0.016919   |   0.0 | 67.84
Modify  | 0          | 0          | 0          |   0.0 |  0.00
Other   |            | 0          |            |       |  0.00

Nlocal:    192 ave 192 max 192 min
Histogram: 1 0 0 0 0 0 0 0 0 0
Nghost:    678 ave 678 max 678 min
Histogram: 1 0 0 0 0 0 0 0 0 0
Neighs:    0 ave 0 max 0 min
Histogram: 1 0 0 0 0 0 0 0 0 0
FullNghs:  5824 ave 5824 max 5824 min
Histogram: 1 0 0 0 0 0 0 0 0 0

Total # of neighbors = 5824
Ave neighs/atom = 30.3333
Neighbor list builds = 0
Dangerous builds = 0

jump            in.lj.for loop
next            index

#change_box all xy final -0.1 z final 0.0 0.5 boundary p p f remap units box \
#change_box all xy scale -0.1 z boundary p p f remap units box
change_box all z delta 0 0.1 boundary p p s remap units box
  orthogonal box = (-1.42846 -1.42846 -4.59337) to (9.42846 9.42846 31.8318)
#change_box all xy final -0.1 z boundary p p f remap units box
#run 0



thermo 10
thermo_style custom step temp pe etotal press vol density c_1[3]
# NVT relaxation
fix 1 all nvt temp 300 300 1

unfix 1

fix 2 all print 100 "${st} ${sigmazz}" append thermo.out screen no title "# step stress "
#dump 103 all xyz 100 si_min_relaxation.xyz

run 50
Per MPI rank memory allocation (min/avg/max) = 4.114 | 4.114 | 4.114 Mbytes
Step Temp PotEng TotEng Press Volume Density c_1[3] 
    2250 9.3742484e-21   -756.02256   -756.02256   -126818.72    4294.3895    2.0851198   -204869.06 
    2260 9.3742484e-21   -756.02256   -756.02256   -126818.72    4294.3895    2.0851198   -204869.06 
    2270 9.3742484e-21   -756.02256   -756.02256   -126818.72    4294.3895    2.0851198   -204869.06 
    2280 9.3742484e-21   -756.02256   -756.02256   -126818.72    4294.3895    2.0851198   -204869.06 
    2290 9.3742484e-21   -756.02256   -756.02256   -126818.72    4294.3895    2.0851198   -204869.06 
    2300 9.3742484e-21   -756.02256   -756.02256   -126818.72    4294.3895    2.0851198   -204869.06 
Loop time of 0.0219409 on 1 procs for 50 steps with 192 atoms

Performance: 19689.214 ns/day, 0.001 hours/ns, 2278.844 timesteps/s
0.0% CPU use with 1 MPI tasks x 1 OpenMP threads

MPI task timing breakdown:
Section |  min time  |  avg time  |  max time  |%varavg| %total
---------------------------------------------------------------
Pair    | 0.0059831  | 0.0059831  | 0.0059831  |   0.0 | 27.27
Neigh   | 0          | 0          | 0          |   0.0 |  0.00
Comm    | 0          | 0          | 0          |   0.0 |  0.00
Output  | 0.015958   | 0.015958   | 0.015958   |   0.0 | 72.73
Modify  | 0          | 0          | 0          |   0.0 |  0.00
Other   |            | 0          |            |       |  0.00

Nlocal:    192 ave 192 max 192 min
Histogram: 1 0 0 0 0 0 0 0 0 0
Nghost:    678 ave 678 max 678 min
Histogram: 1 0 0 0 0 0 0 0 0 0
Neighs:    0 ave 0 max 0 min
Histogram: 1 0 0 0 0 0 0 0 0 0
FullNghs:  5824 ave 5824 max 5824 min
Histogram: 1 0 0 0 0 0 0 0 0 0

Total # of neighbors = 5824
Ave neighs/atom = 30.3333
Neighbor list builds = 0
Dangerous builds = 0

jump            in.lj.for loop
next            index

#change_box all xy final -0.1 z final 0.0 0.5 boundary p p f remap units box \
#change_box all xy scale -0.1 z boundary p p f remap units box
change_box all z delta 0 0.1 boundary p p s remap units box
  orthogonal box = (-1.42846 -1.42846 -4.60067) to (9.42846 9.42846 31.9391)
#change_box all xy final -0.1 z boundary p p f remap units box
#run 0



thermo 10
thermo_style custom step temp pe etotal press vol density c_1[3]
# NVT relaxation
fix 1 all nvt temp 300 300 1

unfix 1

fix 2 all print 100 "${st} ${sigmazz}" append thermo.out screen no title "# step stress "
#dump 103 all xyz 100 si_min_relaxation.xyz

run 50
Per MPI rank memory allocation (min/avg/max) = 4.114 | 4.114 | 4.114 Mbytes
Step Temp PotEng TotEng Press Volume Density c_1[3] 
    2300 9.3742484e-21   -754.28006   -754.28006   -128872.13    4307.8994    2.0785807    -208419.9 
    2310 9.3742484e-21   -754.28006   -754.28006   -128872.13    4307.8994    2.0785807    -208419.9 
    2320 9.3742484e-21   -754.28006   -754.28006   -128872.13    4307.8994    2.0785807    -208419.9 
    2330 9.3742484e-21   -754.28006   -754.28006   -128872.13    4307.8994    2.0785807    -208419.9 
    2340 9.3742484e-21   -754.28006   -754.28006   -128872.13    4307.8994    2.0785807    -208419.9 
    2350 9.3742484e-21   -754.28006   -754.28006   -128872.13    4307.8994    2.0785807    -208419.9 
Loop time of 0.0249341 on 1 procs for 50 steps with 192 atoms

Performance: 17325.703 ns/day, 0.001 hours/ns, 2005.290 timesteps/s
0.0% CPU use with 1 MPI tasks x 1 OpenMP threads

MPI task timing breakdown:
Section |  min time  |  avg time  |  max time  |%varavg| %total
---------------------------------------------------------------
Pair    | 0.0069833  | 0.0069833  | 0.0069833  |   0.0 | 28.01
Neigh   | 0          | 0          | 0          |   0.0 |  0.00
Comm    | 0          | 0          | 0          |   0.0 |  0.00
Output  | 0.017951   | 0.017951   | 0.017951   |   0.0 | 71.99
Modify  | 0          | 0          | 0          |   0.0 |  0.00
Other   |            | 0          |            |       |  0.00

Nlocal:    192 ave 192 max 192 min
Histogram: 1 0 0 0 0 0 0 0 0 0
Nghost:    678 ave 678 max 678 min
Histogram: 1 0 0 0 0 0 0 0 0 0
Neighs:    0 ave 0 max 0 min
Histogram: 1 0 0 0 0 0 0 0 0 0
FullNghs:  5824 ave 5824 max 5824 min
Histogram: 1 0 0 0 0 0 0 0 0 0

Total # of neighbors = 5824
Ave neighs/atom = 30.3333
Neighbor list builds = 0
Dangerous builds = 0

jump            in.lj.for loop
next            index

#change_box all xy final -0.1 z final 0.0 0.5 boundary p p f remap units box \
#change_box all xy scale -0.1 z boundary p p f remap units box
change_box all z delta 0 0.1 boundary p p s remap units box
  orthogonal box = (-1.42846 -1.42846 -4.60799) to (9.42846 9.42846 32.0464)
#change_box all xy final -0.1 z boundary p p f remap units box
#run 0



thermo 10
thermo_style custom step temp pe etotal press vol density c_1[3]
# NVT relaxation
fix 1 all nvt temp 300 300 1

unfix 1

fix 2 all print 100 "${st} ${sigmazz}" append thermo.out screen no title "# step stress "
#dump 103 all xyz 100 si_min_relaxation.xyz

run 50
Per MPI rank memory allocation (min/avg/max) = 4.114 | 4.114 | 4.114 Mbytes
Step Temp PotEng TotEng Press Volume Density c_1[3] 
    2350 9.3742484e-21   -752.50707   -752.50707   -130900.08    4321.4148    2.0720799   -211933.55 
    2360 9.3742484e-21   -752.50707   -752.50707   -130900.08    4321.4148    2.0720799   -211933.55 
    2370 9.3742484e-21   -752.50707   -752.50707   -130900.08    4321.4148    2.0720799   -211933.55 
    2380 9.3742484e-21   -752.50707   -752.50707   -130900.08    4321.4148    2.0720799   -211933.55 
    2390 9.3742484e-21   -752.50707   -752.50707   -130900.08    4321.4148    2.0720799   -211933.55 
    2400 9.3742484e-21   -752.50707   -752.50707   -130900.08    4321.4148    2.0720799   -211933.55 
Loop time of 0.025929 on 1 procs for 50 steps with 192 atoms

Performance: 16660.898 ns/day, 0.001 hours/ns, 1928.345 timesteps/s
0.0% CPU use with 1 MPI tasks x 1 OpenMP threads

MPI task timing breakdown:
Section |  min time  |  avg time  |  max time  |%varavg| %total
---------------------------------------------------------------
Pair    | 0.0059838  | 0.0059838  | 0.0059838  |   0.0 | 23.08
Neigh   | 0          | 0          | 0          |   0.0 |  0.00
Comm    | 0          | 0          | 0          |   0.0 |  0.00
Output  | 0.019945   | 0.019945   | 0.019945   |   0.0 | 76.92
Modify  | 0          | 0          | 0          |   0.0 |  0.00
Other   |            | 0          |            |       |  0.00

Nlocal:    192 ave 192 max 192 min
Histogram: 1 0 0 0 0 0 0 0 0 0
Nghost:    678 ave 678 max 678 min
Histogram: 1 0 0 0 0 0 0 0 0 0
Neighs:    0 ave 0 max 0 min
Histogram: 1 0 0 0 0 0 0 0 0 0
FullNghs:  5824 ave 5824 max 5824 min
Histogram: 1 0 0 0 0 0 0 0 0 0

Total # of neighbors = 5824
Ave neighs/atom = 30.3333
Neighbor list builds = 0
Dangerous builds = 0

jump            in.lj.for loop
next            index

#change_box all xy final -0.1 z final 0.0 0.5 boundary p p f remap units box \
#change_box all xy scale -0.1 z boundary p p f remap units box
change_box all z delta 0 0.1 boundary p p s remap units box
  orthogonal box = (-1.42846 -1.42846 -4.61533) to (9.42846 9.42846 32.1538)
#change_box all xy final -0.1 z boundary p p f remap units box
#run 0



thermo 10
thermo_style custom step temp pe etotal press vol density c_1[3]
# NVT relaxation
fix 1 all nvt temp 300 300 1

unfix 1

fix 2 all print 100 "${st} ${sigmazz}" append thermo.out screen no title "# step stress "
#dump 103 all xyz 100 si_min_relaxation.xyz

run 50
Per MPI rank memory allocation (min/avg/max) = 4.114 | 4.114 | 4.114 Mbytes
Step Temp PotEng TotEng Press Volume Density c_1[3] 
    2400 9.3742484e-21   -750.70387   -750.70387   -132902.88    4334.9355    2.0656171   -215410.28 
    2410 9.3742484e-21   -750.70387   -750.70387   -132902.88    4334.9355    2.0656171   -215410.28 
    2420 9.3742484e-21   -750.70387   -750.70387   -132902.88    4334.9355    2.0656171   -215410.28 
    2430 9.3742484e-21   -750.70387   -750.70387   -132902.88    4334.9355    2.0656171   -215410.28 
    2440 9.3742484e-21   -750.70387   -750.70387   -132902.88    4334.9355    2.0656171   -215410.28 
    2450 9.3742484e-21   -750.70387   -750.70387   -132902.88    4334.9355    2.0656171   -215410.28 
Loop time of 0.0249341 on 1 procs for 50 steps with 192 atoms

Performance: 17325.703 ns/day, 0.001 hours/ns, 2005.290 timesteps/s
125.3% CPU use with 1 MPI tasks x 1 OpenMP threads

MPI task timing breakdown:
Section |  min time  |  avg time  |  max time  |%varavg| %total
---------------------------------------------------------------
Pair    | 0.006978   | 0.006978   | 0.006978   |   0.0 | 27.99
Neigh   | 0          | 0          | 0          |   0.0 |  0.00
Comm    | 0          | 0          | 0          |   0.0 |  0.00
Output  | 0.017956   | 0.017956   | 0.017956   |   0.0 | 72.01
Modify  | 0          | 0          | 0          |   0.0 |  0.00
Other   |            | 0          |            |       |  0.00

Nlocal:    192 ave 192 max 192 min
Histogram: 1 0 0 0 0 0 0 0 0 0
Nghost:    678 ave 678 max 678 min
Histogram: 1 0 0 0 0 0 0 0 0 0
Neighs:    0 ave 0 max 0 min
Histogram: 1 0 0 0 0 0 0 0 0 0
FullNghs:  5824 ave 5824 max 5824 min
Histogram: 1 0 0 0 0 0 0 0 0 0

Total # of neighbors = 5824
Ave neighs/atom = 30.3333
Neighbor list builds = 0
Dangerous builds = 0

jump            in.lj.for loop
next            index

#change_box all xy final -0.1 z final 0.0 0.5 boundary p p f remap units box \
#change_box all xy scale -0.1 z boundary p p f remap units box
change_box all z delta 0 0.1 boundary p p s remap units box
  orthogonal box = (-1.42846 -1.42846 -4.62269) to (9.42846 9.42846 32.2611)
#change_box all xy final -0.1 z boundary p p f remap units box
#run 0



thermo 10
thermo_style custom step temp pe etotal press vol density c_1[3]
# NVT relaxation
fix 1 all nvt temp 300 300 1

unfix 1

fix 2 all print 100 "${st} ${sigmazz}" append thermo.out screen no title "# step stress "
#dump 103 all xyz 100 si_min_relaxation.xyz

run 50
Per MPI rank memory allocation (min/avg/max) = 4.114 | 4.114 | 4.114 Mbytes
Step Temp PotEng TotEng Press Volume Density c_1[3] 
    2450 9.3742484e-21   -748.87076   -748.87076   -134880.88    4348.4616    2.0591918   -218850.37 
    2460 9.3742484e-21   -748.87076   -748.87076   -134880.88    4348.4616    2.0591918   -218850.37 
    2470 9.3742484e-21   -748.87076   -748.87076   -134880.88    4348.4616    2.0591918   -218850.37 
    2480 9.3742484e-21   -748.87076   -748.87076   -134880.88    4348.4616    2.0591918   -218850.37 
    2490 9.3742484e-21   -748.87076   -748.87076   -134880.88    4348.4616    2.0591918   -218850.37 
    2500 9.3742484e-21   -748.87076   -748.87076   -134880.88    4348.4616    2.0591918   -218850.37 
Loop time of 0.022938 on 1 procs for 50 steps with 192 atoms

Performance: 18833.366 ns/day, 0.001 hours/ns, 2179.788 timesteps/s
0.0% CPU use with 1 MPI tasks x 1 OpenMP threads

MPI task timing breakdown:
Section |  min time  |  avg time  |  max time  |%varavg| %total
---------------------------------------------------------------
Pair    | 0.0059841  | 0.0059841  | 0.0059841  |   0.0 | 26.09
Neigh   | 0          | 0          | 0          |   0.0 |  0.00
Comm    | 0          | 0          | 0          |   0.0 |  0.00
Output  | 0.016954   | 0.016954   | 0.016954   |   0.0 | 73.91
Modify  | 0          | 0          | 0          |   0.0 |  0.00
Other   |            | 0          |            |       |  0.00

Nlocal:    192 ave 192 max 192 min
Histogram: 1 0 0 0 0 0 0 0 0 0
Nghost:    678 ave 678 max 678 min
Histogram: 1 0 0 0 0 0 0 0 0 0
Neighs:    0 ave 0 max 0 min
Histogram: 1 0 0 0 0 0 0 0 0 0
FullNghs:  5824 ave 5824 max 5824 min
Histogram: 1 0 0 0 0 0 0 0 0 0

Total # of neighbors = 5824
Ave neighs/atom = 30.3333
Neighbor list builds = 0
Dangerous builds = 0

jump            in.lj.for loop
#loop ends
Total wall time: 0:00:15
