LAMMPS (27 Feb 2020)
OMP_NUM_THREADS environment is not set. Defaulting to 1 thread. (../comm.cpp:94)
  using 1 OpenMP thread(s) per MPI task
dimension    3
boundary    p p p
units metal

atom_style    atomic

neighbor    2.0 bin
neigh_modify delay 5
#neigh_modify    every 1 delay 0 check yes

# create geometry

lattice        diamond 4
Lattice spacing in x,y,z = 4 4 4
region        box block 0 2 0 2 0 6
create_box    1 box
Created orthogonal box = (0 0 0) to (8 8 24)
  1 by 1 by 1 MPI processor grid
create_atoms    1 box
Created 192 atoms
  create_atoms CPU = 0 secs

mass        1 28.0855

# Stillinger-Weber potential for Si
pair_style sw
pair_coeff * * Si.sw Si
Reading potential file Si.sw with DATE: 2007-06-11

timestep 0.01

#Print
thermo          100
thermo_style custom step temp pe etotal press vol density

# minimize
dump 101 all xyz 10 si_min.xyz
fix 1 all box/relax iso 0.0
minimize 1.0e-6 1.0e-8 1000000 10000000
WARNING: Using 'neigh_modify every 1 delay 0 check yes' setting during minimization (../min.cpp:190)
Neighbor list info ...
  update every 1 steps, delay 0 steps, check yes
  max neighbors/atom: 2000, page size: 100000
  master list distance cutoff = 5.77118
  ghost atom cutoff = 5.77118
  binsize = 2.88559, bins = 3 3 9
  1 neighbor lists, perpetual/occasional/extra = 1 0 0
  (1) pair sw, perpetual
      attributes: full, newton on
      pair build: full/bin/atomonly
      stencil: full/bin/3d
      bin: standard
Per MPI rank memory allocation (min/avg/max) = 5.245 | 5.245 | 5.245 Mbytes
Step Temp PotEng TotEng Press Volume Density 
       0            0    3935.8479    3935.8479     21641420         1536    5.8296332 
     100            0    3350.8625    3350.8625     18714891    1582.5423    5.6581846 
     200            0    2834.6304    2834.6304     16205398    1630.0155    5.4933936 
     300            0    2378.0595    2378.0595     14081900    1678.4287    5.3349402 
     400            0    1972.5474    1972.5474     12300134    1727.7911    5.1825227 
     500            0    1610.4753    1610.4753     10802870     1778.112    5.0358564 
     600            0    1285.6816    1285.6816    9524013.2    1829.4006    4.8946725 
     700            0    993.75105    993.75105    8398100.6     1881.666    4.7587172 
     800            0     731.9283     731.9283    7373868.2    1934.9176    4.6277508 
     900            0    498.57654    498.57654    6424738.1    1989.1645    4.5015465 
    1000            0    292.42047    292.42047    5546117.5     2044.416    4.3798897 
    1100            0    112.05172    112.05172      4740853    2100.6812    4.2625776 
    1200            0   -44.137032   -44.137032    4009967.2    2157.9694    4.1494178 
    1300            0   -177.88946   -177.88946    3353170.3    2216.2898    4.0402283 
    1400            0   -291.06257   -291.06257    2769796.6    2275.6516    3.9348364 
    1500            0   -385.61443   -385.61443    2258794.9     2336.064    3.8330785 
    1600            0   -463.58787   -463.58787    1818631.3    2397.5363    3.7347993 
    1700            0   -527.08841   -527.08841    1447164.8    2460.0776    3.6398513 
    1800            0   -578.25457   -578.25457    1141480.6    2523.6972    3.5480948 
    1900            0    -619.2179    -619.2179    897671.04    2588.4042    3.4593966 
    2000            0   -652.04992   -652.04992    710567.73     2654.208    3.3736303 
    2100            0   -678.69325   -678.69325    573464.02    2721.1177     3.290676 
    2200            0   -700.87741   -700.87741     477931.1    2789.1425    3.2104192 
    2300            0   -720.02568   -720.02568    413914.23    2858.2917    3.1327511 
    2400            0   -737.17066   -737.17066    370364.55    2928.5745    3.0575684 
    2500            0   -752.90862   -752.90862    336611.16         3000    2.9847722 
    2600            0   -767.42975   -767.42975    304353.49    3072.5775    2.9142687 
    2700            0   -780.64482   -780.64482    269478.17    3146.3163    2.8459684 
    2800            0    -792.3768    -792.3768     232276.3    3221.2255    2.7797857 
    2900            0   -802.52085   -802.52085    195250.95    3297.3143    2.7156394 
    3000            0    -811.0817    -811.0817    160211.95     3374.592    2.6534516 
    3100            0    -818.1173    -818.1173    127539.04    3453.0678    2.5931482 
    3200            0   -823.69281   -823.69281     97111.31    3532.7508    2.5346584 
    3300            0   -827.87064   -827.87064    68776.335    3613.6504    2.4779145 
    3400            0   -830.71009   -830.71009    42393.038    3695.7757    2.4228517 
    3500            0    -832.2676    -832.2676    17831.226     3779.136    2.3694084 
    3571            0   -832.62478   -832.62478    1431.7956    3839.0765    2.3324142 
Loop time of 11.6649 on 1 procs for 3571 steps with 192 atoms

98.3% CPU use with 1 MPI tasks x 1 OpenMP threads

Minimization stats:
  Stopping criterion = energy tolerance
  Energy initial, next-to-last, final = 
         3935.84791845     -832.623965847      -832.62478384
  Force two-norm initial, final = 62242.6 7.58415
  Force max component initial, final = 62242.6 7.58415
  Final line search alpha, max atom move = 1.1395e-05 8.64213e-05
  Iterations, force evaluations = 3571 3571

MPI task timing breakdown:
Section |  min time  |  avg time  |  max time  |%varavg| %total
---------------------------------------------------------------
Pair    | 11.236     | 11.236     | 11.236     |   0.0 | 96.32
Neigh   | 0.001996   | 0.001996   | 0.001996   |   0.0 |  0.02
Comm    | 0.024942   | 0.024942   | 0.024942   |   0.0 |  0.21
Output  | 0.18709    | 0.18709    | 0.18709    |   0.0 |  1.60
Modify  | 0          | 0          | 0          |   0.0 |  0.00
Other   |            | 0.2147     |            |       |  1.84

Nlocal:    192 ave 192 max 192 min
Histogram: 1 0 0 0 0 0 0 0 0 0
Nghost:    1009 ave 1009 max 1009 min
Histogram: 1 0 0 0 0 0 0 0 0 0
Neighs:    0 ave 0 max 0 min
Histogram: 1 0 0 0 0 0 0 0 0 0
FullNghs:  6528 ave 6528 max 6528 min
Histogram: 1 0 0 0 0 0 0 0 0 0

Total # of neighbors = 6528
Ave neighs/atom = 34
Neighbor list builds = 9
Dangerous builds = 0

unfix 1
undump 101

#---------------------------------NPT-----------------------------------------
dump 102 all xyz 10 npt.xyz
reset_timestep 0

thermo 10
#Relaxation
fix 1 all npt temp 300 300 0.1 iso 0 0 1
run 50
Per MPI rank memory allocation (min/avg/max) = 4.122 | 4.122 | 4.122 Mbytes
Step Temp PotEng TotEng Press Volume Density 
       0            0   -832.62478   -832.62478    1431.7956    3839.0765    2.3324142 
      10 1.571489e-21    -832.6258    -832.6258   -1086.8661    3848.6173    2.3266321 
      20 2.6134035e-21   -832.62714   -832.62714    221.73388    3843.6487    2.3296397 
      30 3.1681566e-21   -832.62651   -832.62651    767.06471    3841.5855    2.3308909 
      40 4.2134521e-21   -832.62484   -832.62484    -1410.543    3849.8502     2.325887 
      50 9.3742484e-21   -832.62489   -832.62489     1399.842     3839.197     2.332341 
Loop time of 0.0219412 on 1 procs for 50 steps with 192 atoms

Performance: 1968.900 ns/day, 0.012 hours/ns, 2278.819 timesteps/s
71.2% CPU use with 1 MPI tasks x 1 OpenMP threads

MPI task timing breakdown:
Section |  min time  |  avg time  |  max time  |%varavg| %total
---------------------------------------------------------------
Pair    | 0.0059831  | 0.0059831  | 0.0059831  |   0.0 | 27.27
Neigh   | 0          | 0          | 0          |   0.0 |  0.00
Comm    | 0          | 0          | 0          |   0.0 |  0.00
Output  | 0.012967   | 0.012967   | 0.012967   |   0.0 | 59.10
Modify  | 0.0029907  | 0.0029907  | 0.0029907  |   0.0 | 13.63
Other   |            | 0          |            |       |  0.00

Nlocal:    192 ave 192 max 192 min
Histogram: 1 0 0 0 0 0 0 0 0 0
Nghost:    1009 ave 1009 max 1009 min
Histogram: 1 0 0 0 0 0 0 0 0 0
Neighs:    0 ave 0 max 0 min
Histogram: 1 0 0 0 0 0 0 0 0 0
FullNghs:  6528 ave 6528 max 6528 min
Histogram: 1 0 0 0 0 0 0 0 0 0

Total # of neighbors = 6528
Ave neighs/atom = 34
Neighbor list builds = 0
Dangerous builds = 0
unfix 1
undump 102

#----------------------------NVT-----------------------------------------

reset_timestep 0
# Calculate potential energy at different distances
#compute 1 all pressure c_ID
compute test all temp
compute 1 all pressure test



#variable      sigmazz equal c_ID[i]
#variable      sigmazz equal c_ID[3]
variable        sigmazz equal c_1[1]
variable        st equal step
variable        index loop 50

timestep 0.1

#loop starts
label loop
next            index

#change_box all xy final -0.1 z final 0.0 0.5 boundary p p f remap units box \
#change_box all xy scale -0.1 z boundary p p f remap units box
change_box all z delta 0 0.1 boundary p p s remap units box
  orthogonal box = (-1.42846 -1.42846 -4.28537) to (9.42846 9.42846 28.3854)
#change_box all xy final -0.1 z boundary p p f remap units box
#run 0



thermo 10
thermo_style custom step temp pe etotal press vol density
# NVT relaxation
fix 1 all nvt temp 300 300 1

unfix 1

fix 2 all print 100 "${st} ${sigmazz}" append thermo.out screen no title "# step stress "
#dump 103 all xyz 100 si_min_relaxation.xyz

run 5000
Per MPI rank memory allocation (min/avg/max) = 3.097 | 3.097 | 3.097 Mbytes
Step Temp PotEng TotEng Press Volume Density 
       0 9.3742484e-21   -797.92418   -797.92418     -1911.33    3692.0349    2.4253066 
      10 9.3742484e-21   -797.92418   -797.92418     -1911.33    3692.0349    2.4253066 
      20 9.3742484e-21   -797.92418   -797.92418     -1911.33    3692.0349    2.4253066 
      30 9.3742484e-21   -797.92418   -797.92418     -1911.33    3692.0349    2.4253066 
      40 9.3742484e-21   -797.92418   -797.92418     -1911.33    3692.0349    2.4253066 
      50 9.3742484e-21   -797.92418   -797.92418     -1911.33    3692.0349    2.4253066 
      60 9.3742484e-21   -797.92418   -797.92418     -1911.33    3692.0349    2.4253066 
      70 9.3742484e-21   -797.92418   -797.92418     -1911.33    3692.0349    2.4253066 
      80 9.3742484e-21   -797.92418   -797.92418     -1911.33    3692.0349    2.4253066 
      90 9.3742484e-21   -797.92418   -797.92418     -1911.33    3692.0349    2.4253066 
     100 9.3742484e-21   -797.92418   -797.92418     -1911.33    3692.0349    2.4253066 
     110 9.3742484e-21   -797.92418   -797.92418     -1911.33    3692.0349    2.4253066 
     120 9.3742484e-21   -797.92418   -797.92418     -1911.33    3692.0349    2.4253066 
     130 9.3742484e-21   -797.92418   -797.92418     -1911.33    3692.0349    2.4253066 
     140 9.3742484e-21   -797.92418   -797.92418     -1911.33    3692.0349    2.4253066 
     150 9.3742484e-21   -797.92418   -797.92418     -1911.33    3692.0349    2.4253066 
     160 9.3742484e-21   -797.92418   -797.92418     -1911.33    3692.0349    2.4253066 
     170 9.3742484e-21   -797.92418   -797.92418     -1911.33    3692.0349    2.4253066 
     180 9.3742484e-21   -797.92418   -797.92418     -1911.33    3692.0349    2.4253066 
     190 9.3742484e-21   -797.92418   -797.92418     -1911.33    3692.0349    2.4253066 
     200 9.3742484e-21   -797.92418   -797.92418     -1911.33    3692.0349    2.4253066 
     210 9.3742484e-21   -797.92418   -797.92418     -1911.33    3692.0349    2.4253066 
     220 9.3742484e-21   -797.92418   -797.92418     -1911.33    3692.0349    2.4253066 
     230 9.3742484e-21   -797.92418   -797.92418     -1911.33    3692.0349    2.4253066 
     240 9.3742484e-21   -797.92418   -797.92418     -1911.33    3692.0349    2.4253066 
     250 9.3742484e-21   -797.92418   -797.92418     -1911.33    3692.0349    2.4253066 
     260 9.3742484e-21   -797.92418   -797.92418     -1911.33    3692.0349    2.4253066 
     270 9.3742484e-21   -797.92418   -797.92418     -1911.33    3692.0349    2.4253066 
     280 9.3742484e-21   -797.92418   -797.92418     -1911.33    3692.0349    2.4253066 
     290 9.3742484e-21   -797.92418   -797.92418     -1911.33    3692.0349    2.4253066 
     300 9.3742484e-21   -797.92418   -797.92418     -1911.33    3692.0349    2.4253066 
     310 9.3742484e-21   -797.92418   -797.92418     -1911.33    3692.0349    2.4253066 
     320 9.3742484e-21   -797.92418   -797.92418     -1911.33    3692.0349    2.4253066 
     330 9.3742484e-21   -797.92418   -797.92418     -1911.33    3692.0349    2.4253066 
     340 9.3742484e-21   -797.92418   -797.92418     -1911.33    3692.0349    2.4253066 
     350 9.3742484e-21   -797.92418   -797.92418     -1911.33    3692.0349    2.4253066 
     360 9.3742484e-21   -797.92418   -797.92418     -1911.33    3692.0349    2.4253066 
     370 9.3742484e-21   -797.92418   -797.92418     -1911.33    3692.0349    2.4253066 
     380 9.3742484e-21   -797.92418   -797.92418     -1911.33    3692.0349    2.4253066 
     390 9.3742484e-21   -797.92418   -797.92418     -1911.33    3692.0349    2.4253066 
     400 9.3742484e-21   -797.92418   -797.92418     -1911.33    3692.0349    2.4253066 
     410 9.3742484e-21   -797.92418   -797.92418     -1911.33    3692.0349    2.4253066 
     420 9.3742484e-21   -797.92418   -797.92418     -1911.33    3692.0349    2.4253066 
     430 9.3742484e-21   -797.92418   -797.92418     -1911.33    3692.0349    2.4253066 
     440 9.3742484e-21   -797.92418   -797.92418     -1911.33    3692.0349    2.4253066 
     450 9.3742484e-21   -797.92418   -797.92418     -1911.33    3692.0349    2.4253066 
     460 9.3742484e-21   -797.92418   -797.92418     -1911.33    3692.0349    2.4253066 
     470 9.3742484e-21   -797.92418   -797.92418     -1911.33    3692.0349    2.4253066 
     480 9.3742484e-21   -797.92418   -797.92418     -1911.33    3692.0349    2.4253066 
     490 9.3742484e-21   -797.92418   -797.92418     -1911.33    3692.0349    2.4253066 
     500 9.3742484e-21   -797.92418   -797.92418     -1911.33    3692.0349    2.4253066 
     510 9.3742484e-21   -797.92418   -797.92418     -1911.33    3692.0349    2.4253066 
     520 9.3742484e-21   -797.92418   -797.92418     -1911.33    3692.0349    2.4253066 
     530 9.3742484e-21   -797.92418   -797.92418     -1911.33    3692.0349    2.4253066 
     540 9.3742484e-21   -797.92418   -797.92418     -1911.33    3692.0349    2.4253066 
     550 9.3742484e-21   -797.92418   -797.92418     -1911.33    3692.0349    2.4253066 
     560 9.3742484e-21   -797.92418   -797.92418     -1911.33    3692.0349    2.4253066 
     570 9.3742484e-21   -797.92418   -797.92418     -1911.33    3692.0349    2.4253066 
     580 9.3742484e-21   -797.92418   -797.92418     -1911.33    3692.0349    2.4253066 
     590 9.3742484e-21   -797.92418   -797.92418     -1911.33    3692.0349    2.4253066 
     600 9.3742484e-21   -797.92418   -797.92418     -1911.33    3692.0349    2.4253066 
     610 9.3742484e-21   -797.92418   -797.92418     -1911.33    3692.0349    2.4253066 
     620 9.3742484e-21   -797.92418   -797.92418     -1911.33    3692.0349    2.4253066 
     630 9.3742484e-21   -797.92418   -797.92418     -1911.33    3692.0349    2.4253066 
     640 9.3742484e-21   -797.92418   -797.92418     -1911.33    3692.0349    2.4253066 
     650 9.3742484e-21   -797.92418   -797.92418     -1911.33    3692.0349    2.4253066 
     660 9.3742484e-21   -797.92418   -797.92418     -1911.33    3692.0349    2.4253066 
     670 9.3742484e-21   -797.92418   -797.92418     -1911.33    3692.0349    2.4253066 
     680 9.3742484e-21   -797.92418   -797.92418     -1911.33    3692.0349    2.4253066 
     690 9.3742484e-21   -797.92418   -797.92418     -1911.33    3692.0349    2.4253066 
     700 9.3742484e-21   -797.92418   -797.92418     -1911.33    3692.0349    2.4253066 
     710 9.3742484e-21   -797.92418   -797.92418     -1911.33    3692.0349    2.4253066 
     720 9.3742484e-21   -797.92418   -797.92418     -1911.33    3692.0349    2.4253066 
     730 9.3742484e-21   -797.92418   -797.92418     -1911.33    3692.0349    2.4253066 
     740 9.3742484e-21   -797.92418   -797.92418     -1911.33    3692.0349    2.4253066 
     750 9.3742484e-21   -797.92418   -797.92418     -1911.33    3692.0349    2.4253066 
     760 9.3742484e-21   -797.92418   -797.92418     -1911.33    3692.0349    2.4253066 
     770 9.3742484e-21   -797.92418   -797.92418     -1911.33    3692.0349    2.4253066 
     780 9.3742484e-21   -797.92418   -797.92418     -1911.33    3692.0349    2.4253066 
     790 9.3742484e-21   -797.92418   -797.92418     -1911.33    3692.0349    2.4253066 
     800 9.3742484e-21   -797.92418   -797.92418     -1911.33    3692.0349    2.4253066 
     810 9.3742484e-21   -797.92418   -797.92418     -1911.33    3692.0349    2.4253066 
     820 9.3742484e-21   -797.92418   -797.92418     -1911.33    3692.0349    2.4253066 
     830 9.3742484e-21   -797.92418   -797.92418     -1911.33    3692.0349    2.4253066 
     840 9.3742484e-21   -797.92418   -797.92418     -1911.33    3692.0349    2.4253066 
     850 9.3742484e-21   -797.92418   -797.92418     -1911.33    3692.0349    2.4253066 
     860 9.3742484e-21   -797.92418   -797.92418     -1911.33    3692.0349    2.4253066 
     870 9.3742484e-21   -797.92418   -797.92418     -1911.33    3692.0349    2.4253066 
     880 9.3742484e-21   -797.92418   -797.92418     -1911.33    3692.0349    2.4253066 
     890 9.3742484e-21   -797.92418   -797.92418     -1911.33    3692.0349    2.4253066 
     900 9.3742484e-21   -797.92418   -797.92418     -1911.33    3692.0349    2.4253066 
     910 9.3742484e-21   -797.92418   -797.92418     -1911.33    3692.0349    2.4253066 
     920 9.3742484e-21   -797.92418   -797.92418     -1911.33    3692.0349    2.4253066 
     930 9.3742484e-21   -797.92418   -797.92418     -1911.33    3692.0349    2.4253066 
     940 9.3742484e-21   -797.92418   -797.92418     -1911.33    3692.0349    2.4253066 
     950 9.3742484e-21   -797.92418   -797.92418     -1911.33    3692.0349    2.4253066 
     960 9.3742484e-21   -797.92418   -797.92418     -1911.33    3692.0349    2.4253066 
     970 9.3742484e-21   -797.92418   -797.92418     -1911.33    3692.0349    2.4253066 
     980 9.3742484e-21   -797.92418   -797.92418     -1911.33    3692.0349    2.4253066 
     990 9.3742484e-21   -797.92418   -797.92418     -1911.33    3692.0349    2.4253066 
    1000 9.3742484e-21   -797.92418   -797.92418     -1911.33    3692.0349    2.4253066 
    1010 9.3742484e-21   -797.92418   -797.92418     -1911.33    3692.0349    2.4253066 
    1020 9.3742484e-21   -797.92418   -797.92418     -1911.33    3692.0349    2.4253066 
    1030 9.3742484e-21   -797.92418   -797.92418     -1911.33    3692.0349    2.4253066 
    1040 9.3742484e-21   -797.92418   -797.92418     -1911.33    3692.0349    2.4253066 
    1050 9.3742484e-21   -797.92418   -797.92418     -1911.33    3692.0349    2.4253066 
    1060 9.3742484e-21   -797.92418   -797.92418     -1911.33    3692.0349    2.4253066 
    1070 9.3742484e-21   -797.92418   -797.92418     -1911.33    3692.0349    2.4253066 
    1080 9.3742484e-21   -797.92418   -797.92418     -1911.33    3692.0349    2.4253066 
    1090 9.3742484e-21   -797.92418   -797.92418     -1911.33    3692.0349    2.4253066 
    1100 9.3742484e-21   -797.92418   -797.92418     -1911.33    3692.0349    2.4253066 
    1110 9.3742484e-21   -797.92418   -797.92418     -1911.33    3692.0349    2.4253066 
    1120 9.3742484e-21   -797.92418   -797.92418     -1911.33    3692.0349    2.4253066 
    1130 9.3742484e-21   -797.92418   -797.92418     -1911.33    3692.0349    2.4253066 
    1140 9.3742484e-21   -797.92418   -797.92418     -1911.33    3692.0349    2.4253066 
    1150 9.3742484e-21   -797.92418   -797.92418     -1911.33    3692.0349    2.4253066 
    1160 9.3742484e-21   -797.92418   -797.92418     -1911.33    3692.0349    2.4253066 
    1170 9.3742484e-21   -797.92418   -797.92418     -1911.33    3692.0349    2.4253066 
    1180 9.3742484e-21   -797.92418   -797.92418     -1911.33    3692.0349    2.4253066 
    1190 9.3742484e-21   -797.92418   -797.92418     -1911.33    3692.0349    2.4253066 
    1200 9.3742484e-21   -797.92418   -797.92418     -1911.33    3692.0349    2.4253066 
    1210 9.3742484e-21   -797.92418   -797.92418     -1911.33    3692.0349    2.4253066 
    1220 9.3742484e-21   -797.92418   -797.92418     -1911.33    3692.0349    2.4253066 
    1230 9.3742484e-21   -797.92418   -797.92418     -1911.33    3692.0349    2.4253066 
    1240 9.3742484e-21   -797.92418   -797.92418     -1911.33    3692.0349    2.4253066 
    1250 9.3742484e-21   -797.92418   -797.92418     -1911.33    3692.0349    2.4253066 
    1260 9.3742484e-21   -797.92418   -797.92418     -1911.33    3692.0349    2.4253066 
    1270 9.3742484e-21   -797.92418   -797.92418     -1911.33    3692.0349    2.4253066 
    1280 9.3742484e-21   -797.92418   -797.92418     -1911.33    3692.0349    2.4253066 
    1290 9.3742484e-21   -797.92418   -797.92418     -1911.33    3692.0349    2.4253066 
    1300 9.3742484e-21   -797.92418   -797.92418     -1911.33    3692.0349    2.4253066 
    1310 9.3742484e-21   -797.92418   -797.92418     -1911.33    3692.0349    2.4253066 
    1320 9.3742484e-21   -797.92418   -797.92418     -1911.33    3692.0349    2.4253066 
    1330 9.3742484e-21   -797.92418   -797.92418     -1911.33    3692.0349    2.4253066 
    1340 9.3742484e-21   -797.92418   -797.92418     -1911.33    3692.0349    2.4253066 
    1350 9.3742484e-21   -797.92418   -797.92418     -1911.33    3692.0349    2.4253066 
    1360 9.3742484e-21   -797.92418   -797.92418     -1911.33    3692.0349    2.4253066 
    1370 9.3742484e-21   -797.92418   -797.92418     -1911.33    3692.0349    2.4253066 
    1380 9.3742484e-21   -797.92418   -797.92418     -1911.33    3692.0349    2.4253066 
    1390 9.3742484e-21   -797.92418   -797.92418     -1911.33    3692.0349    2.4253066 
    1400 9.3742484e-21   -797.92418   -797.92418     -1911.33    3692.0349    2.4253066 
    1410 9.3742484e-21   -797.92418   -797.92418     -1911.33    3692.0349    2.4253066 
    1420 9.3742484e-21   -797.92418   -797.92418     -1911.33    3692.0349    2.4253066 
    1430 9.3742484e-21   -797.92418   -797.92418     -1911.33    3692.0349    2.4253066 
    1440 9.3742484e-21   -797.92418   -797.92418     -1911.33    3692.0349    2.4253066 
    1450 9.3742484e-21   -797.92418   -797.92418     -1911.33    3692.0349    2.4253066 
    1460 9.3742484e-21   -797.92418   -797.92418     -1911.33    3692.0349    2.4253066 
    1470 9.3742484e-21   -797.92418   -797.92418     -1911.33    3692.0349    2.4253066 
    1480 9.3742484e-21   -797.92418   -797.92418     -1911.33    3692.0349    2.4253066 
    1490 9.3742484e-21   -797.92418   -797.92418     -1911.33    3692.0349    2.4253066 
    1500 9.3742484e-21   -797.92418   -797.92418     -1911.33    3692.0349    2.4253066 
    1510 9.3742484e-21   -797.92418   -797.92418     -1911.33    3692.0349    2.4253066 
    1520 9.3742484e-21   -797.92418   -797.92418     -1911.33    3692.0349    2.4253066 
    1530 9.3742484e-21   -797.92418   -797.92418     -1911.33    3692.0349    2.4253066 
    1540 9.3742484e-21   -797.92418   -797.92418     -1911.33    3692.0349    2.4253066 
    1550 9.3742484e-21   -797.92418   -797.92418     -1911.33    3692.0349    2.4253066 
    1560 9.3742484e-21   -797.92418   -797.92418     -1911.33    3692.0349    2.4253066 
    1570 9.3742484e-21   -797.92418   -797.92418     -1911.33    3692.0349    2.4253066 
    1580 9.3742484e-21   -797.92418   -797.92418     -1911.33    3692.0349    2.4253066 
    1590 9.3742484e-21   -797.92418   -797.92418     -1911.33    3692.0349    2.4253066 
    1600 9.3742484e-21   -797.92418   -797.92418     -1911.33    3692.0349    2.4253066 
    1610 9.3742484e-21   -797.92418   -797.92418     -1911.33    3692.0349    2.4253066 
    1620 9.3742484e-21   -797.92418   -797.92418     -1911.33    3692.0349    2.4253066 
    1630 9.3742484e-21   -797.92418   -797.92418     -1911.33    3692.0349    2.4253066 
    1640 9.3742484e-21   -797.92418   -797.92418     -1911.33    3692.0349    2.4253066 
    1650 9.3742484e-21   -797.92418   -797.92418     -1911.33    3692.0349    2.4253066 
    1660 9.3742484e-21   -797.92418   -797.92418     -1911.33    3692.0349    2.4253066 
    1670 9.3742484e-21   -797.92418   -797.92418     -1911.33    3692.0349    2.4253066 
    1680 9.3742484e-21   -797.92418   -797.92418     -1911.33    3692.0349    2.4253066 
    1690 9.3742484e-21   -797.92418   -797.92418     -1911.33    3692.0349    2.4253066 
    1700 9.3742484e-21   -797.92418   -797.92418     -1911.33    3692.0349    2.4253066 
    1710 9.3742484e-21   -797.92418   -797.92418     -1911.33    3692.0349    2.4253066 
    1720 9.3742484e-21   -797.92418   -797.92418     -1911.33    3692.0349    2.4253066 
    1730 9.3742484e-21   -797.92418   -797.92418     -1911.33    3692.0349    2.4253066 
    1740 9.3742484e-21   -797.92418   -797.92418     -1911.33    3692.0349    2.4253066 
    1750 9.3742484e-21   -797.92418   -797.92418     -1911.33    3692.0349    2.4253066 
    1760 9.3742484e-21   -797.92418   -797.92418     -1911.33    3692.0349    2.4253066 
    1770 9.3742484e-21   -797.92418   -797.92418     -1911.33    3692.0349    2.4253066 
    1780 9.3742484e-21   -797.92418   -797.92418     -1911.33    3692.0349    2.4253066 
    1790 9.3742484e-21   -797.92418   -797.92418     -1911.33    3692.0349    2.4253066 
    1800 9.3742484e-21   -797.92418   -797.92418     -1911.33    3692.0349    2.4253066 
    1810 9.3742484e-21   -797.92418   -797.92418     -1911.33    3692.0349    2.4253066 
    1820 9.3742484e-21   -797.92418   -797.92418     -1911.33    3692.0349    2.4253066 
    1830 9.3742484e-21   -797.92418   -797.92418     -1911.33    3692.0349    2.4253066 
    1840 9.3742484e-21   -797.92418   -797.92418     -1911.33    3692.0349    2.4253066 
    1850 9.3742484e-21   -797.92418   -797.92418     -1911.33    3692.0349    2.4253066 
    1860 9.3742484e-21   -797.92418   -797.92418     -1911.33    3692.0349    2.4253066 
    1870 9.3742484e-21   -797.92418   -797.92418     -1911.33    3692.0349    2.4253066 
    1880 9.3742484e-21   -797.92418   -797.92418     -1911.33    3692.0349    2.4253066 
    1890 9.3742484e-21   -797.92418   -797.92418     -1911.33    3692.0349    2.4253066 
    1900 9.3742484e-21   -797.92418   -797.92418     -1911.33    3692.0349    2.4253066 
    1910 9.3742484e-21   -797.92418   -797.92418     -1911.33    3692.0349    2.4253066 
    1920 9.3742484e-21   -797.92418   -797.92418     -1911.33    3692.0349    2.4253066 
    1930 9.3742484e-21   -797.92418   -797.92418     -1911.33    3692.0349    2.4253066 
    1940 9.3742484e-21   -797.92418   -797.92418     -1911.33    3692.0349    2.4253066 
    1950 9.3742484e-21   -797.92418   -797.92418     -1911.33    3692.0349    2.4253066 
    1960 9.3742484e-21   -797.92418   -797.92418     -1911.33    3692.0349    2.4253066 
    1970 9.3742484e-21   -797.92418   -797.92418     -1911.33    3692.0349    2.4253066 
    1980 9.3742484e-21   -797.92418   -797.92418     -1911.33    3692.0349    2.4253066 
    1990 9.3742484e-21   -797.92418   -797.92418     -1911.33    3692.0349    2.4253066 
    2000 9.3742484e-21   -797.92418   -797.92418     -1911.33    3692.0349    2.4253066 
    2010 9.3742484e-21   -797.92418   -797.92418     -1911.33    3692.0349    2.4253066 
    2020 9.3742484e-21   -797.92418   -797.92418     -1911.33    3692.0349    2.4253066 
    2030 9.3742484e-21   -797.92418   -797.92418     -1911.33    3692.0349    2.4253066 
    2040 9.3742484e-21   -797.92418   -797.92418     -1911.33    3692.0349    2.4253066 
    2050 9.3742484e-21   -797.92418   -797.92418     -1911.33    3692.0349    2.4253066 
    2060 9.3742484e-21   -797.92418   -797.92418     -1911.33    3692.0349    2.4253066 
    2070 9.3742484e-21   -797.92418   -797.92418     -1911.33    3692.0349    2.4253066 
    2080 9.3742484e-21   -797.92418   -797.92418     -1911.33    3692.0349    2.4253066 
    2090 9.3742484e-21   -797.92418   -797.92418     -1911.33    3692.0349    2.4253066 
    2100 9.3742484e-21   -797.92418   -797.92418     -1911.33    3692.0349    2.4253066 
    2110 9.3742484e-21   -797.92418   -797.92418     -1911.33    3692.0349    2.4253066 
    2120 9.3742484e-21   -797.92418   -797.92418     -1911.33    3692.0349    2.4253066 
    2130 9.3742484e-21   -797.92418   -797.92418     -1911.33    3692.0349    2.4253066 
    2140 9.3742484e-21   -797.92418   -797.92418     -1911.33    3692.0349    2.4253066 
    2150 9.3742484e-21   -797.92418   -797.92418     -1911.33    3692.0349    2.4253066 
    2160 9.3742484e-21   -797.92418   -797.92418     -1911.33    3692.0349    2.4253066 
    2170 9.3742484e-21   -797.92418   -797.92418     -1911.33    3692.0349    2.4253066 
    2180 9.3742484e-21   -797.92418   -797.92418     -1911.33    3692.0349    2.4253066 
    2190 9.3742484e-21   -797.92418   -797.92418     -1911.33    3692.0349    2.4253066 
    2200 9.3742484e-21   -797.92418   -797.92418     -1911.33    3692.0349    2.4253066 
    2210 9.3742484e-21   -797.92418   -797.92418     -1911.33    3692.0349    2.4253066 
    2220 9.3742484e-21   -797.92418   -797.92418     -1911.33    3692.0349    2.4253066 
    2230 9.3742484e-21   -797.92418   -797.92418     -1911.33    3692.0349    2.4253066 
    2240 9.3742484e-21   -797.92418   -797.92418     -1911.33    3692.0349    2.4253066 
    2250 9.3742484e-21   -797.92418   -797.92418     -1911.33    3692.0349    2.4253066 
    2260 9.3742484e-21   -797.92418   -797.92418     -1911.33    3692.0349    2.4253066 
    2270 9.3742484e-21   -797.92418   -797.92418     -1911.33    3692.0349    2.4253066 
    2280 9.3742484e-21   -797.92418   -797.92418     -1911.33    3692.0349    2.4253066 
    2290 9.3742484e-21   -797.92418   -797.92418     -1911.33    3692.0349    2.4253066 
    2300 9.3742484e-21   -797.92418   -797.92418     -1911.33    3692.0349    2.4253066 
    2310 9.3742484e-21   -797.92418   -797.92418     -1911.33    3692.0349    2.4253066 
    2320 9.3742484e-21   -797.92418   -797.92418     -1911.33    3692.0349    2.4253066 
    2330 9.3742484e-21   -797.92418   -797.92418     -1911.33    3692.0349    2.4253066 
    2340 9.3742484e-21   -797.92418   -797.92418     -1911.33    3692.0349    2.4253066 
    2350 9.3742484e-21   -797.92418   -797.92418     -1911.33    3692.0349    2.4253066 
    2360 9.3742484e-21   -797.92418   -797.92418     -1911.33    3692.0349    2.4253066 
    2370 9.3742484e-21   -797.92418   -797.92418     -1911.33    3692.0349    2.4253066 
    2380 9.3742484e-21   -797.92418   -797.92418     -1911.33    3692.0349    2.4253066 
    2390 9.3742484e-21   -797.92418   -797.92418     -1911.33    3692.0349    2.4253066 
    2400 9.3742484e-21   -797.92418   -797.92418     -1911.33    3692.0349    2.4253066 
    2410 9.3742484e-21   -797.92418   -797.92418     -1911.33    3692.0349    2.4253066 
    2420 9.3742484e-21   -797.92418   -797.92418     -1911.33    3692.0349    2.4253066 
    2430 9.3742484e-21   -797.92418   -797.92418     -1911.33    3692.0349    2.4253066 
    2440 9.3742484e-21   -797.92418   -797.92418     -1911.33    3692.0349    2.4253066 
    2450 9.3742484e-21   -797.92418   -797.92418     -1911.33    3692.0349    2.4253066 
    2460 9.3742484e-21   -797.92418   -797.92418     -1911.33    3692.0349    2.4253066 
    2470 9.3742484e-21   -797.92418   -797.92418     -1911.33    3692.0349    2.4253066 
    2480 9.3742484e-21   -797.92418   -797.92418     -1911.33    3692.0349    2.4253066 
    2490 9.3742484e-21   -797.92418   -797.92418     -1911.33    3692.0349    2.4253066 
    2500 9.3742484e-21   -797.92418   -797.92418     -1911.33    3692.0349    2.4253066 
    2510 9.3742484e-21   -797.92418   -797.92418     -1911.33    3692.0349    2.4253066 
    2520 9.3742484e-21   -797.92418   -797.92418     -1911.33    3692.0349    2.4253066 
    2530 9.3742484e-21   -797.92418   -797.92418     -1911.33    3692.0349    2.4253066 
    2540 9.3742484e-21   -797.92418   -797.92418     -1911.33    3692.0349    2.4253066 
    2550 9.3742484e-21   -797.92418   -797.92418     -1911.33    3692.0349    2.4253066 
    2560 9.3742484e-21   -797.92418   -797.92418     -1911.33    3692.0349    2.4253066 
    2570 9.3742484e-21   -797.92418   -797.92418     -1911.33    3692.0349    2.4253066 
    2580 9.3742484e-21   -797.92418   -797.92418     -1911.33    3692.0349    2.4253066 
    2590 9.3742484e-21   -797.92418   -797.92418     -1911.33    3692.0349    2.4253066 
    2600 9.3742484e-21   -797.92418   -797.92418     -1911.33    3692.0349    2.4253066 
    2610 9.3742484e-21   -797.92418   -797.92418     -1911.33    3692.0349    2.4253066 
    2620 9.3742484e-21   -797.92418   -797.92418     -1911.33    3692.0349    2.4253066 
    2630 9.3742484e-21   -797.92418   -797.92418     -1911.33    3692.0349    2.4253066 
    2640 9.3742484e-21   -797.92418   -797.92418     -1911.33    3692.0349    2.4253066 
    2650 9.3742484e-21   -797.92418   -797.92418     -1911.33    3692.0349    2.4253066 
    2660 9.3742484e-21   -797.92418   -797.92418     -1911.33    3692.0349    2.4253066 
    2670 9.3742484e-21   -797.92418   -797.92418     -1911.33    3692.0349    2.4253066 
    2680 9.3742484e-21   -797.92418   -797.92418     -1911.33    3692.0349    2.4253066 
    2690 9.3742484e-21   -797.92418   -797.92418     -1911.33    3692.0349    2.4253066 
    2700 9.3742484e-21   -797.92418   -797.92418     -1911.33    3692.0349    2.4253066 
    2710 9.3742484e-21   -797.92418   -797.92418     -1911.33    3692.0349    2.4253066 
    2720 9.3742484e-21   -797.92418   -797.92418     -1911.33    3692.0349    2.4253066 
    2730 9.3742484e-21   -797.92418   -797.92418     -1911.33    3692.0349    2.4253066 
    2740 9.3742484e-21   -797.92418   -797.92418     -1911.33    3692.0349    2.4253066 
    2750 9.3742484e-21   -797.92418   -797.92418     -1911.33    3692.0349    2.4253066 
    2760 9.3742484e-21   -797.92418   -797.92418     -1911.33    3692.0349    2.4253066 
    2770 9.3742484e-21   -797.92418   -797.92418     -1911.33    3692.0349    2.4253066 
    2780 9.3742484e-21   -797.92418   -797.92418     -1911.33    3692.0349    2.4253066 
    2790 9.3742484e-21   -797.92418   -797.92418     -1911.33    3692.0349    2.4253066 
    2800 9.3742484e-21   -797.92418   -797.92418     -1911.33    3692.0349    2.4253066 
    2810 9.3742484e-21   -797.92418   -797.92418     -1911.33    3692.0349    2.4253066 
    2820 9.3742484e-21   -797.92418   -797.92418     -1911.33    3692.0349    2.4253066 
    2830 9.3742484e-21   -797.92418   -797.92418     -1911.33    3692.0349    2.4253066 
    2840 9.3742484e-21   -797.92418   -797.92418     -1911.33    3692.0349    2.4253066 
    2850 9.3742484e-21   -797.92418   -797.92418     -1911.33    3692.0349    2.4253066 
    2860 9.3742484e-21   -797.92418   -797.92418     -1911.33    3692.0349    2.4253066 
    2870 9.3742484e-21   -797.92418   -797.92418     -1911.33    3692.0349    2.4253066 
    2880 9.3742484e-21   -797.92418   -797.92418     -1911.33    3692.0349    2.4253066 
    2890 9.3742484e-21   -797.92418   -797.92418     -1911.33    3692.0349    2.4253066 
    2900 9.3742484e-21   -797.92418   -797.92418     -1911.33    3692.0349    2.4253066 
    2910 9.3742484e-21   -797.92418   -797.92418     -1911.33    3692.0349    2.4253066 
    2920 9.3742484e-21   -797.92418   -797.92418     -1911.33    3692.0349    2.4253066 
    2930 9.3742484e-21   -797.92418   -797.92418     -1911.33    3692.0349    2.4253066 
    2940 9.3742484e-21   -797.92418   -797.92418     -1911.33    3692.0349    2.4253066 
    2950 9.3742484e-21   -797.92418   -797.92418     -1911.33    3692.0349    2.4253066 
    2960 9.3742484e-21   -797.92418   -797.92418     -1911.33    3692.0349    2.4253066 
    2970 9.3742484e-21   -797.92418   -797.92418     -1911.33    3692.0349    2.4253066 
    2980 9.3742484e-21   -797.92418   -797.92418     -1911.33    3692.0349    2.4253066 
    2990 9.3742484e-21   -797.92418   -797.92418     -1911.33    3692.0349    2.4253066 
    3000 9.3742484e-21   -797.92418   -797.92418     -1911.33    3692.0349    2.4253066 
    3010 9.3742484e-21   -797.92418   -797.92418     -1911.33    3692.0349    2.4253066 
    3020 9.3742484e-21   -797.92418   -797.92418     -1911.33    3692.0349    2.4253066 
    3030 9.3742484e-21   -797.92418   -797.92418     -1911.33    3692.0349    2.4253066 
    3040 9.3742484e-21   -797.92418   -797.92418     -1911.33    3692.0349    2.4253066 
    3050 9.3742484e-21   -797.92418   -797.92418     -1911.33    3692.0349    2.4253066 
    3060 9.3742484e-21   -797.92418   -797.92418     -1911.33    3692.0349    2.4253066 
    3070 9.3742484e-21   -797.92418   -797.92418     -1911.33    3692.0349    2.4253066 
    3080 9.3742484e-21   -797.92418   -797.92418     -1911.33    3692.0349    2.4253066 
    3090 9.3742484e-21   -797.92418   -797.92418     -1911.33    3692.0349    2.4253066 
    3100 9.3742484e-21   -797.92418   -797.92418     -1911.33    3692.0349    2.4253066 
    3110 9.3742484e-21   -797.92418   -797.92418     -1911.33    3692.0349    2.4253066 
    3120 9.3742484e-21   -797.92418   -797.92418     -1911.33    3692.0349    2.4253066 
    3130 9.3742484e-21   -797.92418   -797.92418     -1911.33    3692.0349    2.4253066 
    3140 9.3742484e-21   -797.92418   -797.92418     -1911.33    3692.0349    2.4253066 
    3150 9.3742484e-21   -797.92418   -797.92418     -1911.33    3692.0349    2.4253066 
    3160 9.3742484e-21   -797.92418   -797.92418     -1911.33    3692.0349    2.4253066 
    3170 9.3742484e-21   -797.92418   -797.92418     -1911.33    3692.0349    2.4253066 
    3180 9.3742484e-21   -797.92418   -797.92418     -1911.33    3692.0349    2.4253066 
    3190 9.3742484e-21   -797.92418   -797.92418     -1911.33    3692.0349    2.4253066 
    3200 9.3742484e-21   -797.92418   -797.92418     -1911.33    3692.0349    2.4253066 
    3210 9.3742484e-21   -797.92418   -797.92418     -1911.33    3692.0349    2.4253066 
    3220 9.3742484e-21   -797.92418   -797.92418     -1911.33    3692.0349    2.4253066 
    3230 9.3742484e-21   -797.92418   -797.92418     -1911.33    3692.0349    2.4253066 
    3240 9.3742484e-21   -797.92418   -797.92418     -1911.33    3692.0349    2.4253066 
    3250 9.3742484e-21   -797.92418   -797.92418     -1911.33    3692.0349    2.4253066 
    3260 9.3742484e-21   -797.92418   -797.92418     -1911.33    3692.0349    2.4253066 
    3270 9.3742484e-21   -797.92418   -797.92418     -1911.33    3692.0349    2.4253066 
    3280 9.3742484e-21   -797.92418   -797.92418     -1911.33    3692.0349    2.4253066 
    3290 9.3742484e-21   -797.92418   -797.92418     -1911.33    3692.0349    2.4253066 
    3300 9.3742484e-21   -797.92418   -797.92418     -1911.33    3692.0349    2.4253066 
    3310 9.3742484e-21   -797.92418   -797.92418     -1911.33    3692.0349    2.4253066 
    3320 9.3742484e-21   -797.92418   -797.92418     -1911.33    3692.0349    2.4253066 
    3330 9.3742484e-21   -797.92418   -797.92418     -1911.33    3692.0349    2.4253066 
    3340 9.3742484e-21   -797.92418   -797.92418     -1911.33    3692.0349    2.4253066 
    3350 9.3742484e-21   -797.92418   -797.92418     -1911.33    3692.0349    2.4253066 
    3360 9.3742484e-21   -797.92418   -797.92418     -1911.33    3692.0349    2.4253066 
    3370 9.3742484e-21   -797.92418   -797.92418     -1911.33    3692.0349    2.4253066 
    3380 9.3742484e-21   -797.92418   -797.92418     -1911.33    3692.0349    2.4253066 
    3390 9.3742484e-21   -797.92418   -797.92418     -1911.33    3692.0349    2.4253066 
    3400 9.3742484e-21   -797.92418   -797.92418     -1911.33    3692.0349    2.4253066 
    3410 9.3742484e-21   -797.92418   -797.92418     -1911.33    3692.0349    2.4253066 
    3420 9.3742484e-21   -797.92418   -797.92418     -1911.33    3692.0349    2.4253066 
    3430 9.3742484e-21   -797.92418   -797.92418     -1911.33    3692.0349    2.4253066 
    3440 9.3742484e-21   -797.92418   -797.92418     -1911.33    3692.0349    2.4253066 
    3450 9.3742484e-21   -797.92418   -797.92418     -1911.33    3692.0349    2.4253066 
    3460 9.3742484e-21   -797.92418   -797.92418     -1911.33    3692.0349    2.4253066 
    3470 9.3742484e-21   -797.92418   -797.92418     -1911.33    3692.0349    2.4253066 
    3480 9.3742484e-21   -797.92418   -797.92418     -1911.33    3692.0349    2.4253066 
    3490 9.3742484e-21   -797.92418   -797.92418     -1911.33    3692.0349    2.4253066 
    3500 9.3742484e-21   -797.92418   -797.92418     -1911.33    3692.0349    2.4253066 
    3510 9.3742484e-21   -797.92418   -797.92418     -1911.33    3692.0349    2.4253066 
    3520 9.3742484e-21   -797.92418   -797.92418     -1911.33    3692.0349    2.4253066 
    3530 9.3742484e-21   -797.92418   -797.92418     -1911.33    3692.0349    2.4253066 
    3540 9.3742484e-21   -797.92418   -797.92418     -1911.33    3692.0349    2.4253066 
    3550 9.3742484e-21   -797.92418   -797.92418     -1911.33    3692.0349    2.4253066 
    3560 9.3742484e-21   -797.92418   -797.92418     -1911.33    3692.0349    2.4253066 
    3570 9.3742484e-21   -797.92418   -797.92418     -1911.33    3692.0349    2.4253066 
    3580 9.3742484e-21   -797.92418   -797.92418     -1911.33    3692.0349    2.4253066 
    3590 9.3742484e-21   -797.92418   -797.92418     -1911.33    3692.0349    2.4253066 
    3600 9.3742484e-21   -797.92418   -797.92418     -1911.33    3692.0349    2.4253066 
    3610 9.3742484e-21   -797.92418   -797.92418     -1911.33    3692.0349    2.4253066 
    3620 9.3742484e-21   -797.92418   -797.92418     -1911.33    3692.0349    2.4253066 
    3630 9.3742484e-21   -797.92418   -797.92418     -1911.33    3692.0349    2.4253066 
    3640 9.3742484e-21   -797.92418   -797.92418     -1911.33    3692.0349    2.4253066 
    3650 9.3742484e-21   -797.92418   -797.92418     -1911.33    3692.0349    2.4253066 
    3660 9.3742484e-21   -797.92418   -797.92418     -1911.33    3692.0349    2.4253066 
    3670 9.3742484e-21   -797.92418   -797.92418     -1911.33    3692.0349    2.4253066 
    3680 9.3742484e-21   -797.92418   -797.92418     -1911.33    3692.0349    2.4253066 
    3690 9.3742484e-21   -797.92418   -797.92418     -1911.33    3692.0349    2.4253066 
    3700 9.3742484e-21   -797.92418   -797.92418     -1911.33    3692.0349    2.4253066 
    3710 9.3742484e-21   -797.92418   -797.92418     -1911.33    3692.0349    2.4253066 
    3720 9.3742484e-21   -797.92418   -797.92418     -1911.33    3692.0349    2.4253066 
    3730 9.3742484e-21   -797.92418   -797.92418     -1911.33    3692.0349    2.4253066 
    3740 9.3742484e-21   -797.92418   -797.92418     -1911.33    3692.0349    2.4253066 
    3750 9.3742484e-21   -797.92418   -797.92418     -1911.33    3692.0349    2.4253066 
    3760 9.3742484e-21   -797.92418   -797.92418     -1911.33    3692.0349    2.4253066 
    3770 9.3742484e-21   -797.92418   -797.92418     -1911.33    3692.0349    2.4253066 
    3780 9.3742484e-21   -797.92418   -797.92418     -1911.33    3692.0349    2.4253066 
    3790 9.3742484e-21   -797.92418   -797.92418     -1911.33    3692.0349    2.4253066 
    3800 9.3742484e-21   -797.92418   -797.92418     -1911.33    3692.0349    2.4253066 
    3810 9.3742484e-21   -797.92418   -797.92418     -1911.33    3692.0349    2.4253066 
    3820 9.3742484e-21   -797.92418   -797.92418     -1911.33    3692.0349    2.4253066 
    3830 9.3742484e-21   -797.92418   -797.92418     -1911.33    3692.0349    2.4253066 
    3840 9.3742484e-21   -797.92418   -797.92418     -1911.33    3692.0349    2.4253066 
    3850 9.3742484e-21   -797.92418   -797.92418     -1911.33    3692.0349    2.4253066 
    3860 9.3742484e-21   -797.92418   -797.92418     -1911.33    3692.0349    2.4253066 
    3870 9.3742484e-21   -797.92418   -797.92418     -1911.33    3692.0349    2.4253066 
    3880 9.3742484e-21   -797.92418   -797.92418     -1911.33    3692.0349    2.4253066 
    3890 9.3742484e-21   -797.92418   -797.92418     -1911.33    3692.0349    2.4253066 
    3900 9.3742484e-21   -797.92418   -797.92418     -1911.33    3692.0349    2.4253066 
    3910 9.3742484e-21   -797.92418   -797.92418     -1911.33    3692.0349    2.4253066 
    3920 9.3742484e-21   -797.92418   -797.92418     -1911.33    3692.0349    2.4253066 
    3930 9.3742484e-21   -797.92418   -797.92418     -1911.33    3692.0349    2.4253066 
    3940 9.3742484e-21   -797.92418   -797.92418     -1911.33    3692.0349    2.4253066 
    3950 9.3742484e-21   -797.92418   -797.92418     -1911.33    3692.0349    2.4253066 
    3960 9.3742484e-21   -797.92418   -797.92418     -1911.33    3692.0349    2.4253066 
    3970 9.3742484e-21   -797.92418   -797.92418     -1911.33    3692.0349    2.4253066 
    3980 9.3742484e-21   -797.92418   -797.92418     -1911.33    3692.0349    2.4253066 
    3990 9.3742484e-21   -797.92418   -797.92418     -1911.33    3692.0349    2.4253066 
    4000 9.3742484e-21   -797.92418   -797.92418     -1911.33    3692.0349    2.4253066 
    4010 9.3742484e-21   -797.92418   -797.92418     -1911.33    3692.0349    2.4253066 
    4020 9.3742484e-21   -797.92418   -797.92418     -1911.33    3692.0349    2.4253066 
    4030 9.3742484e-21   -797.92418   -797.92418     -1911.33    3692.0349    2.4253066 
    4040 9.3742484e-21   -797.92418   -797.92418     -1911.33    3692.0349    2.4253066 
    4050 9.3742484e-21   -797.92418   -797.92418     -1911.33    3692.0349    2.4253066 
    4060 9.3742484e-21   -797.92418   -797.92418     -1911.33    3692.0349    2.4253066 
    4070 9.3742484e-21   -797.92418   -797.92418     -1911.33    3692.0349    2.4253066 
    4080 9.3742484e-21   -797.92418   -797.92418     -1911.33    3692.0349    2.4253066 
    4090 9.3742484e-21   -797.92418   -797.92418     -1911.33    3692.0349    2.4253066 
    4100 9.3742484e-21   -797.92418   -797.92418     -1911.33    3692.0349    2.4253066 
    4110 9.3742484e-21   -797.92418   -797.92418     -1911.33    3692.0349    2.4253066 
    4120 9.3742484e-21   -797.92418   -797.92418     -1911.33    3692.0349    2.4253066 
    4130 9.3742484e-21   -797.92418   -797.92418     -1911.33    3692.0349    2.4253066 
    4140 9.3742484e-21   -797.92418   -797.92418     -1911.33    3692.0349    2.4253066 
    4150 9.3742484e-21   -797.92418   -797.92418     -1911.33    3692.0349    2.4253066 
    4160 9.3742484e-21   -797.92418   -797.92418     -1911.33    3692.0349    2.4253066 
    4170 9.3742484e-21   -797.92418   -797.92418     -1911.33    3692.0349    2.4253066 
    4180 9.3742484e-21   -797.92418   -797.92418     -1911.33    3692.0349    2.4253066 
    4190 9.3742484e-21   -797.92418   -797.92418     -1911.33    3692.0349    2.4253066 
    4200 9.3742484e-21   -797.92418   -797.92418     -1911.33    3692.0349    2.4253066 
    4210 9.3742484e-21   -797.92418   -797.92418     -1911.33    3692.0349    2.4253066 
    4220 9.3742484e-21   -797.92418   -797.92418     -1911.33    3692.0349    2.4253066 
    4230 9.3742484e-21   -797.92418   -797.92418     -1911.33    3692.0349    2.4253066 
    4240 9.3742484e-21   -797.92418   -797.92418     -1911.33    3692.0349    2.4253066 
    4250 9.3742484e-21   -797.92418   -797.92418     -1911.33    3692.0349    2.4253066 
    4260 9.3742484e-21   -797.92418   -797.92418     -1911.33    3692.0349    2.4253066 
    4270 9.3742484e-21   -797.92418   -797.92418     -1911.33    3692.0349    2.4253066 
    4280 9.3742484e-21   -797.92418   -797.92418     -1911.33    3692.0349    2.4253066 
    4290 9.3742484e-21   -797.92418   -797.92418     -1911.33    3692.0349    2.4253066 
    4300 9.3742484e-21   -797.92418   -797.92418     -1911.33    3692.0349    2.4253066 
    4310 9.3742484e-21   -797.92418   -797.92418     -1911.33    3692.0349    2.4253066 
    4320 9.3742484e-21   -797.92418   -797.92418     -1911.33    3692.0349    2.4253066 
    4330 9.3742484e-21   -797.92418   -797.92418     -1911.33    3692.0349    2.4253066 
    4340 9.3742484e-21   -797.92418   -797.92418     -1911.33    3692.0349    2.4253066 
    4350 9.3742484e-21   -797.92418   -797.92418     -1911.33    3692.0349    2.4253066 
    4360 9.3742484e-21   -797.92418   -797.92418     -1911.33    3692.0349    2.4253066 
    4370 9.3742484e-21   -797.92418   -797.92418     -1911.33    3692.0349    2.4253066 
    4380 9.3742484e-21   -797.92418   -797.92418     -1911.33    3692.0349    2.4253066 
    4390 9.3742484e-21   -797.92418   -797.92418     -1911.33    3692.0349    2.4253066 
    4400 9.3742484e-21   -797.92418   -797.92418     -1911.33    3692.0349    2.4253066 
    4410 9.3742484e-21   -797.92418   -797.92418     -1911.33    3692.0349    2.4253066 
    4420 9.3742484e-21   -797.92418   -797.92418     -1911.33    3692.0349    2.4253066 
    4430 9.3742484e-21   -797.92418   -797.92418     -1911.33    3692.0349    2.4253066 
    4440 9.3742484e-21   -797.92418   -797.92418     -1911.33    3692.0349    2.4253066 
    4450 9.3742484e-21   -797.92418   -797.92418     -1911.33    3692.0349    2.4253066 
    4460 9.3742484e-21   -797.92418   -797.92418     -1911.33    3692.0349    2.4253066 
    4470 9.3742484e-21   -797.92418   -797.92418     -1911.33    3692.0349    2.4253066 
    4480 9.3742484e-21   -797.92418   -797.92418     -1911.33    3692.0349    2.4253066 
    4490 9.3742484e-21   -797.92418   -797.92418     -1911.33    3692.0349    2.4253066 
    4500 9.3742484e-21   -797.92418   -797.92418     -1911.33    3692.0349    2.4253066 
    4510 9.3742484e-21   -797.92418   -797.92418     -1911.33    3692.0349    2.4253066 
    4520 9.3742484e-21   -797.92418   -797.92418     -1911.33    3692.0349    2.4253066 
    4530 9.3742484e-21   -797.92418   -797.92418     -1911.33    3692.0349    2.4253066 
    4540 9.3742484e-21   -797.92418   -797.92418     -1911.33    3692.0349    2.4253066 
    4550 9.3742484e-21   -797.92418   -797.92418     -1911.33    3692.0349    2.4253066 
    4560 9.3742484e-21   -797.92418   -797.92418     -1911.33    3692.0349    2.4253066 
    4570 9.3742484e-21   -797.92418   -797.92418     -1911.33    3692.0349    2.4253066 
    4580 9.3742484e-21   -797.92418   -797.92418     -1911.33    3692.0349    2.4253066 
    4590 9.3742484e-21   -797.92418   -797.92418     -1911.33    3692.0349    2.4253066 
    4600 9.3742484e-21   -797.92418   -797.92418     -1911.33    3692.0349    2.4253066 
    4610 9.3742484e-21   -797.92418   -797.92418     -1911.33    3692.0349    2.4253066 
    4620 9.3742484e-21   -797.92418   -797.92418     -1911.33    3692.0349    2.4253066 
    4630 9.3742484e-21   -797.92418   -797.92418     -1911.33    3692.0349    2.4253066 
    4640 9.3742484e-21   -797.92418   -797.92418     -1911.33    3692.0349    2.4253066 
    4650 9.3742484e-21   -797.92418   -797.92418     -1911.33    3692.0349    2.4253066 
    4660 9.3742484e-21   -797.92418   -797.92418     -1911.33    3692.0349    2.4253066 
    4670 9.3742484e-21   -797.92418   -797.92418     -1911.33    3692.0349    2.4253066 
    4680 9.3742484e-21   -797.92418   -797.92418     -1911.33    3692.0349    2.4253066 
    4690 9.3742484e-21   -797.92418   -797.92418     -1911.33    3692.0349    2.4253066 
    4700 9.3742484e-21   -797.92418   -797.92418     -1911.33    3692.0349    2.4253066 
    4710 9.3742484e-21   -797.92418   -797.92418     -1911.33    3692.0349    2.4253066 
    4720 9.3742484e-21   -797.92418   -797.92418     -1911.33    3692.0349    2.4253066 
    4730 9.3742484e-21   -797.92418   -797.92418     -1911.33    3692.0349    2.4253066 
    4740 9.3742484e-21   -797.92418   -797.92418     -1911.33    3692.0349    2.4253066 
    4750 9.3742484e-21   -797.92418   -797.92418     -1911.33    3692.0349    2.4253066 
    4760 9.3742484e-21   -797.92418   -797.92418     -1911.33    3692.0349    2.4253066 
    4770 9.3742484e-21   -797.92418   -797.92418     -1911.33    3692.0349    2.4253066 
    4780 9.3742484e-21   -797.92418   -797.92418     -1911.33    3692.0349    2.4253066 
    4790 9.3742484e-21   -797.92418   -797.92418     -1911.33    3692.0349    2.4253066 
    4800 9.3742484e-21   -797.92418   -797.92418     -1911.33    3692.0349    2.4253066 
    4810 9.3742484e-21   -797.92418   -797.92418     -1911.33    3692.0349    2.4253066 
    4820 9.3742484e-21   -797.92418   -797.92418     -1911.33    3692.0349    2.4253066 
    4830 9.3742484e-21   -797.92418   -797.92418     -1911.33    3692.0349    2.4253066 
    4840 9.3742484e-21   -797.92418   -797.92418     -1911.33    3692.0349    2.4253066 
    4850 9.3742484e-21   -797.92418   -797.92418     -1911.33    3692.0349    2.4253066 
    4860 9.3742484e-21   -797.92418   -797.92418     -1911.33    3692.0349    2.4253066 
    4870 9.3742484e-21   -797.92418   -797.92418     -1911.33    3692.0349    2.4253066 
    4880 9.3742484e-21   -797.92418   -797.92418     -1911.33    3692.0349    2.4253066 
    4890 9.3742484e-21   -797.92418   -797.92418     -1911.33    3692.0349    2.4253066 
    4900 9.3742484e-21   -797.92418   -797.92418     -1911.33    3692.0349    2.4253066 
    4910 9.3742484e-21   -797.92418   -797.92418     -1911.33    3692.0349    2.4253066 
    4920 9.3742484e-21   -797.92418   -797.92418     -1911.33    3692.0349    2.4253066 
    4930 9.3742484e-21   -797.92418   -797.92418     -1911.33    3692.0349    2.4253066 
    4940 9.3742484e-21   -797.92418   -797.92418     -1911.33    3692.0349    2.4253066 
    4950 9.3742484e-21   -797.92418   -797.92418     -1911.33    3692.0349    2.4253066 
    4960 9.3742484e-21   -797.92418   -797.92418     -1911.33    3692.0349    2.4253066 
    4970 9.3742484e-21   -797.92418   -797.92418     -1911.33    3692.0349    2.4253066 
    4980 9.3742484e-21   -797.92418   -797.92418     -1911.33    3692.0349    2.4253066 
    4990 9.3742484e-21   -797.92418   -797.92418     -1911.33    3692.0349    2.4253066 
    5000 9.3742484e-21   -797.92418   -797.92418     -1911.33    3692.0349    2.4253066 
Loop time of 2.47048 on 1 procs for 5000 steps with 192 atoms

Performance: 17486.465 ns/day, 0.001 hours/ns, 2023.896 timesteps/s
27.2% CPU use with 1 MPI tasks x 1 OpenMP threads

MPI task timing breakdown:
Section |  min time  |  avg time  |  max time  |%varavg| %total
---------------------------------------------------------------
Pair    | 0.62932    | 0.62932    | 0.62932    |   0.0 | 25.47
Neigh   | 0          | 0          | 0          |   0.0 |  0.00
Comm    | 0.014959   | 0.014959   | 0.014959   |   0.0 |  0.61
Output  | 1.8152     | 1.8152     | 1.8152     |   0.0 | 73.48
Modify  | 0.0019948  | 0.0019948  | 0.0019948  |   0.0 |  0.08
Other   |            | 0.008978   |            |       |  0.36

Nlocal:    192 ave 192 max 192 min
Histogram: 1 0 0 0 0 0 0 0 0 0
Nghost:    678 ave 678 max 678 min
Histogram: 1 0 0 0 0 0 0 0 0 0
Neighs:    0 ave 0 max 0 min
Histogram: 1 0 0 0 0 0 0 0 0 0
FullNghs:  6144 ave 6144 max 6144 min
Histogram: 1 0 0 0 0 0 0 0 0 0

Total # of neighbors = 6144
Ave neighs/atom = 32
Neighbor list builds = 0
Dangerous builds = 0

jump            in.lj.for loop
next            index

#change_box all xy final -0.1 z final 0.0 0.5 boundary p p f remap units box \
#change_box all xy scale -0.1 z boundary p p f remap units box
change_box all z delta 0 0.1 boundary p p s remap units box
  orthogonal box = (-1.42846 -1.42846 -4.29505) to (9.42846 9.42846 27.1335)
#change_box all xy final -0.1 z boundary p p f remap units box
#run 0



thermo 10
thermo_style custom step temp pe etotal press vol density
# NVT relaxation
fix 1 all nvt temp 300 300 1

unfix 1

fix 2 all print 100 "${st} ${sigmazz}" append thermo.out screen no title "# step stress "
#dump 103 all xyz 100 si_min_relaxation.xyz

run 5000
Per MPI rank memory allocation (min/avg/max) = 3.097 | 3.097 | 3.097 Mbytes
Step Temp PotEng TotEng Press Volume Density 
    5000 9.3742484e-21   -797.87265   -797.87265     -5517.01    3705.2717    2.4166424 
    5010 9.3742484e-21   -797.87265   -797.87265     -5517.01    3705.2717    2.4166424 
    5020 9.3742484e-21   -797.87265   -797.87265     -5517.01    3705.2717    2.4166424 
    5030 9.3742484e-21   -797.87265   -797.87265     -5517.01    3705.2717    2.4166424 
    5040 9.3742484e-21   -797.87265   -797.87265     -5517.01    3705.2717    2.4166424 
    5050 9.3742484e-21   -797.87265   -797.87265     -5517.01    3705.2717    2.4166424 
    5060 9.3742484e-21   -797.87265   -797.87265     -5517.01    3705.2717    2.4166424 
    5070 9.3742484e-21   -797.87265   -797.87265     -5517.01    3705.2717    2.4166424 
    5080 9.3742484e-21   -797.87265   -797.87265     -5517.01    3705.2717    2.4166424 
    5090 9.3742484e-21   -797.87265   -797.87265     -5517.01    3705.2717    2.4166424 
    5100 9.3742484e-21   -797.87265   -797.87265     -5517.01    3705.2717    2.4166424 
    5110 9.3742484e-21   -797.87265   -797.87265     -5517.01    3705.2717    2.4166424 
    5120 9.3742484e-21   -797.87265   -797.87265     -5517.01    3705.2717    2.4166424 
    5130 9.3742484e-21   -797.87265   -797.87265     -5517.01    3705.2717    2.4166424 
    5140 9.3742484e-21   -797.87265   -797.87265     -5517.01    3705.2717    2.4166424 
    5150 9.3742484e-21   -797.87265   -797.87265     -5517.01    3705.2717    2.4166424 
    5160 9.3742484e-21   -797.87265   -797.87265     -5517.01    3705.2717    2.4166424 
    5170 9.3742484e-21   -797.87265   -797.87265     -5517.01    3705.2717    2.4166424 
    5180 9.3742484e-21   -797.87265   -797.87265     -5517.01    3705.2717    2.4166424 
    5190 9.3742484e-21   -797.87265   -797.87265     -5517.01    3705.2717    2.4166424 
    5200 9.3742484e-21   -797.87265   -797.87265     -5517.01    3705.2717    2.4166424 
    5210 9.3742484e-21   -797.87265   -797.87265     -5517.01    3705.2717    2.4166424 
    5220 9.3742484e-21   -797.87265   -797.87265     -5517.01    3705.2717    2.4166424 
    5230 9.3742484e-21   -797.87265   -797.87265     -5517.01    3705.2717    2.4166424 
    5240 9.3742484e-21   -797.87265   -797.87265     -5517.01    3705.2717    2.4166424 
    5250 9.3742484e-21   -797.87265   -797.87265     -5517.01    3705.2717    2.4166424 
    5260 9.3742484e-21   -797.87265   -797.87265     -5517.01    3705.2717    2.4166424 
    5270 9.3742484e-21   -797.87265   -797.87265     -5517.01    3705.2717    2.4166424 
    5280 9.3742484e-21   -797.87265   -797.87265     -5517.01    3705.2717    2.4166424 
    5290 9.3742484e-21   -797.87265   -797.87265     -5517.01    3705.2717    2.4166424 
    5300 9.3742484e-21   -797.87265   -797.87265     -5517.01    3705.2717    2.4166424 
    5310 9.3742484e-21   -797.87265   -797.87265     -5517.01    3705.2717    2.4166424 
    5320 9.3742484e-21   -797.87265   -797.87265     -5517.01    3705.2717    2.4166424 
    5330 9.3742484e-21   -797.87265   -797.87265     -5517.01    3705.2717    2.4166424 
    5340 9.3742484e-21   -797.87265   -797.87265     -5517.01    3705.2717    2.4166424 
    5350 9.3742484e-21   -797.87265   -797.87265     -5517.01    3705.2717    2.4166424 
    5360 9.3742484e-21   -797.87265   -797.87265     -5517.01    3705.2717    2.4166424 
    5370 9.3742484e-21   -797.87265   -797.87265     -5517.01    3705.2717    2.4166424 
    5380 9.3742484e-21   -797.87265   -797.87265     -5517.01    3705.2717    2.4166424 
    5390 9.3742484e-21   -797.87265   -797.87265     -5517.01    3705.2717    2.4166424 
    5400 9.3742484e-21   -797.87265   -797.87265     -5517.01    3705.2717    2.4166424 
    5410 9.3742484e-21   -797.87265   -797.87265     -5517.01    3705.2717    2.4166424 
    5420 9.3742484e-21   -797.87265   -797.87265     -5517.01    3705.2717    2.4166424 
    5430 9.3742484e-21   -797.87265   -797.87265     -5517.01    3705.2717    2.4166424 
    5440 9.3742484e-21   -797.87265   -797.87265     -5517.01    3705.2717    2.4166424 
    5450 9.3742484e-21   -797.87265   -797.87265     -5517.01    3705.2717    2.4166424 
    5460 9.3742484e-21   -797.87265   -797.87265     -5517.01    3705.2717    2.4166424 
    5470 9.3742484e-21   -797.87265   -797.87265     -5517.01    3705.2717    2.4166424 
    5480 9.3742484e-21   -797.87265   -797.87265     -5517.01    3705.2717    2.4166424 
    5490 9.3742484e-21   -797.87265   -797.87265     -5517.01    3705.2717    2.4166424 
    5500 9.3742484e-21   -797.87265   -797.87265     -5517.01    3705.2717    2.4166424 
    5510 9.3742484e-21   -797.87265   -797.87265     -5517.01    3705.2717    2.4166424 
    5520 9.3742484e-21   -797.87265   -797.87265     -5517.01    3705.2717    2.4166424 
    5530 9.3742484e-21   -797.87265   -797.87265     -5517.01    3705.2717    2.4166424 
    5540 9.3742484e-21   -797.87265   -797.87265     -5517.01    3705.2717    2.4166424 
    5550 9.3742484e-21   -797.87265   -797.87265     -5517.01    3705.2717    2.4166424 
    5560 9.3742484e-21   -797.87265   -797.87265     -5517.01    3705.2717    2.4166424 
    5570 9.3742484e-21   -797.87265   -797.87265     -5517.01    3705.2717    2.4166424 
    5580 9.3742484e-21   -797.87265   -797.87265     -5517.01    3705.2717    2.4166424 
    5590 9.3742484e-21   -797.87265   -797.87265     -5517.01    3705.2717    2.4166424 
    5600 9.3742484e-21   -797.87265   -797.87265     -5517.01    3705.2717    2.4166424 
    5610 9.3742484e-21   -797.87265   -797.87265     -5517.01    3705.2717    2.4166424 
    5620 9.3742484e-21   -797.87265   -797.87265     -5517.01    3705.2717    2.4166424 
    5630 9.3742484e-21   -797.87265   -797.87265     -5517.01    3705.2717    2.4166424 
    5640 9.3742484e-21   -797.87265   -797.87265     -5517.01    3705.2717    2.4166424 
    5650 9.3742484e-21   -797.87265   -797.87265     -5517.01    3705.2717    2.4166424 
    5660 9.3742484e-21   -797.87265   -797.87265     -5517.01    3705.2717    2.4166424 
    5670 9.3742484e-21   -797.87265   -797.87265     -5517.01    3705.2717    2.4166424 
    5680 9.3742484e-21   -797.87265   -797.87265     -5517.01    3705.2717    2.4166424 
    5690 9.3742484e-21   -797.87265   -797.87265     -5517.01    3705.2717    2.4166424 
    5700 9.3742484e-21   -797.87265   -797.87265     -5517.01    3705.2717    2.4166424 
    5710 9.3742484e-21   -797.87265   -797.87265     -5517.01    3705.2717    2.4166424 
    5720 9.3742484e-21   -797.87265   -797.87265     -5517.01    3705.2717    2.4166424 
    5730 9.3742484e-21   -797.87265   -797.87265     -5517.01    3705.2717    2.4166424 
    5740 9.3742484e-21   -797.87265   -797.87265     -5517.01    3705.2717    2.4166424 
    5750 9.3742484e-21   -797.87265   -797.87265     -5517.01    3705.2717    2.4166424 
    5760 9.3742484e-21   -797.87265   -797.87265     -5517.01    3705.2717    2.4166424 
    5770 9.3742484e-21   -797.87265   -797.87265     -5517.01    3705.2717    2.4166424 
    5780 9.3742484e-21   -797.87265   -797.87265     -5517.01    3705.2717    2.4166424 
    5790 9.3742484e-21   -797.87265   -797.87265     -5517.01    3705.2717    2.4166424 
    5800 9.3742484e-21   -797.87265   -797.87265     -5517.01    3705.2717    2.4166424 
    5810 9.3742484e-21   -797.87265   -797.87265     -5517.01    3705.2717    2.4166424 
    5820 9.3742484e-21   -797.87265   -797.87265     -5517.01    3705.2717    2.4166424 
    5830 9.3742484e-21   -797.87265   -797.87265     -5517.01    3705.2717    2.4166424 
    5840 9.3742484e-21   -797.87265   -797.87265     -5517.01    3705.2717    2.4166424 
    5850 9.3742484e-21   -797.87265   -797.87265     -5517.01    3705.2717    2.4166424 
    5860 9.3742484e-21   -797.87265   -797.87265     -5517.01    3705.2717    2.4166424 
    5870 9.3742484e-21   -797.87265   -797.87265     -5517.01    3705.2717    2.4166424 
    5880 9.3742484e-21   -797.87265   -797.87265     -5517.01    3705.2717    2.4166424 
    5890 9.3742484e-21   -797.87265   -797.87265     -5517.01    3705.2717    2.4166424 
    5900 9.3742484e-21   -797.87265   -797.87265     -5517.01    3705.2717    2.4166424 
    5910 9.3742484e-21   -797.87265   -797.87265     -5517.01    3705.2717    2.4166424 
    5920 9.3742484e-21   -797.87265   -797.87265     -5517.01    3705.2717    2.4166424 
    5930 9.3742484e-21   -797.87265   -797.87265     -5517.01    3705.2717    2.4166424 
    5940 9.3742484e-21   -797.87265   -797.87265     -5517.01    3705.2717    2.4166424 
    5950 9.3742484e-21   -797.87265   -797.87265     -5517.01    3705.2717    2.4166424 
    5960 9.3742484e-21   -797.87265   -797.87265     -5517.01    3705.2717    2.4166424 
    5970 9.3742484e-21   -797.87265   -797.87265     -5517.01    3705.2717    2.4166424 
    5980 9.3742484e-21   -797.87265   -797.87265     -5517.01    3705.2717    2.4166424 
    5990 9.3742484e-21   -797.87265   -797.87265     -5517.01    3705.2717    2.4166424 
    6000 9.3742484e-21   -797.87265   -797.87265     -5517.01    3705.2717    2.4166424 
    6010 9.3742484e-21   -797.87265   -797.87265     -5517.01    3705.2717    2.4166424 
    6020 9.3742484e-21   -797.87265   -797.87265     -5517.01    3705.2717    2.4166424 
    6030 9.3742484e-21   -797.87265   -797.87265     -5517.01    3705.2717    2.4166424 
    6040 9.3742484e-21   -797.87265   -797.87265     -5517.01    3705.2717    2.4166424 
    6050 9.3742484e-21   -797.87265   -797.87265     -5517.01    3705.2717    2.4166424 
    6060 9.3742484e-21   -797.87265   -797.87265     -5517.01    3705.2717    2.4166424 
    6070 9.3742484e-21   -797.87265   -797.87265     -5517.01    3705.2717    2.4166424 
    6080 9.3742484e-21   -797.87265   -797.87265     -5517.01    3705.2717    2.4166424 
    6090 9.3742484e-21   -797.87265   -797.87265     -5517.01    3705.2717    2.4166424 
    6100 9.3742484e-21   -797.87265   -797.87265     -5517.01    3705.2717    2.4166424 
    6110 9.3742484e-21   -797.87265   -797.87265     -5517.01    3705.2717    2.4166424 
    6120 9.3742484e-21   -797.87265   -797.87265     -5517.01    3705.2717    2.4166424 
    6130 9.3742484e-21   -797.87265   -797.87265     -5517.01    3705.2717    2.4166424 
    6140 9.3742484e-21   -797.87265   -797.87265     -5517.01    3705.2717    2.4166424 
    6150 9.3742484e-21   -797.87265   -797.87265     -5517.01    3705.2717    2.4166424 
    6160 9.3742484e-21   -797.87265   -797.87265     -5517.01    3705.2717    2.4166424 
    6170 9.3742484e-21   -797.87265   -797.87265     -5517.01    3705.2717    2.4166424 
    6180 9.3742484e-21   -797.87265   -797.87265     -5517.01    3705.2717    2.4166424 
    6190 9.3742484e-21   -797.87265   -797.87265     -5517.01    3705.2717    2.4166424 
    6200 9.3742484e-21   -797.87265   -797.87265     -5517.01    3705.2717    2.4166424 
    6210 9.3742484e-21   -797.87265   -797.87265     -5517.01    3705.2717    2.4166424 
    6220 9.3742484e-21   -797.87265   -797.87265     -5517.01    3705.2717    2.4166424 
    6230 9.3742484e-21   -797.87265   -797.87265     -5517.01    3705.2717    2.4166424 
    6240 9.3742484e-21   -797.87265   -797.87265     -5517.01    3705.2717    2.4166424 
    6250 9.3742484e-21   -797.87265   -797.87265     -5517.01    3705.2717    2.4166424 
    6260 9.3742484e-21   -797.87265   -797.87265     -5517.01    3705.2717    2.4166424 
    6270 9.3742484e-21   -797.87265   -797.87265     -5517.01    3705.2717    2.4166424 
    6280 9.3742484e-21   -797.87265   -797.87265     -5517.01    3705.2717    2.4166424 
    6290 9.3742484e-21   -797.87265   -797.87265     -5517.01    3705.2717    2.4166424 
    6300 9.3742484e-21   -797.87265   -797.87265     -5517.01    3705.2717    2.4166424 
    6310 9.3742484e-21   -797.87265   -797.87265     -5517.01    3705.2717    2.4166424 
    6320 9.3742484e-21   -797.87265   -797.87265     -5517.01    3705.2717    2.4166424 
    6330 9.3742484e-21   -797.87265   -797.87265     -5517.01    3705.2717    2.4166424 
    6340 9.3742484e-21   -797.87265   -797.87265     -5517.01    3705.2717    2.4166424 
    6350 9.3742484e-21   -797.87265   -797.87265     -5517.01    3705.2717    2.4166424 
    6360 9.3742484e-21   -797.87265   -797.87265     -5517.01    3705.2717    2.4166424 
    6370 9.3742484e-21   -797.87265   -797.87265     -5517.01    3705.2717    2.4166424 
    6380 9.3742484e-21   -797.87265   -797.87265     -5517.01    3705.2717    2.4166424 
    6390 9.3742484e-21   -797.87265   -797.87265     -5517.01    3705.2717    2.4166424 
    6400 9.3742484e-21   -797.87265   -797.87265     -5517.01    3705.2717    2.4166424 
    6410 9.3742484e-21   -797.87265   -797.87265     -5517.01    3705.2717    2.4166424 
    6420 9.3742484e-21   -797.87265   -797.87265     -5517.01    3705.2717    2.4166424 
    6430 9.3742484e-21   -797.87265   -797.87265     -5517.01    3705.2717    2.4166424 
    6440 9.3742484e-21   -797.87265   -797.87265     -5517.01    3705.2717    2.4166424 
    6450 9.3742484e-21   -797.87265   -797.87265     -5517.01    3705.2717    2.4166424 
    6460 9.3742484e-21   -797.87265   -797.87265     -5517.01    3705.2717    2.4166424 
    6470 9.3742484e-21   -797.87265   -797.87265     -5517.01    3705.2717    2.4166424 
    6480 9.3742484e-21   -797.87265   -797.87265     -5517.01    3705.2717    2.4166424 
    6490 9.3742484e-21   -797.87265   -797.87265     -5517.01    3705.2717    2.4166424 
    6500 9.3742484e-21   -797.87265   -797.87265     -5517.01    3705.2717    2.4166424 
    6510 9.3742484e-21   -797.87265   -797.87265     -5517.01    3705.2717    2.4166424 
    6520 9.3742484e-21   -797.87265   -797.87265     -5517.01    3705.2717    2.4166424 
    6530 9.3742484e-21   -797.87265   -797.87265     -5517.01    3705.2717    2.4166424 
    6540 9.3742484e-21   -797.87265   -797.87265     -5517.01    3705.2717    2.4166424 
    6550 9.3742484e-21   -797.87265   -797.87265     -5517.01    3705.2717    2.4166424 
    6560 9.3742484e-21   -797.87265   -797.87265     -5517.01    3705.2717    2.4166424 
    6570 9.3742484e-21   -797.87265   -797.87265     -5517.01    3705.2717    2.4166424 
    6580 9.3742484e-21   -797.87265   -797.87265     -5517.01    3705.2717    2.4166424 
    6590 9.3742484e-21   -797.87265   -797.87265     -5517.01    3705.2717    2.4166424 
    6600 9.3742484e-21   -797.87265   -797.87265     -5517.01    3705.2717    2.4166424 
    6610 9.3742484e-21   -797.87265   -797.87265     -5517.01    3705.2717    2.4166424 
    6620 9.3742484e-21   -797.87265   -797.87265     -5517.01    3705.2717    2.4166424 
    6630 9.3742484e-21   -797.87265   -797.87265     -5517.01    3705.2717    2.4166424 
    6640 9.3742484e-21   -797.87265   -797.87265     -5517.01    3705.2717    2.4166424 
    6650 9.3742484e-21   -797.87265   -797.87265     -5517.01    3705.2717    2.4166424 
    6660 9.3742484e-21   -797.87265   -797.87265     -5517.01    3705.2717    2.4166424 
    6670 9.3742484e-21   -797.87265   -797.87265     -5517.01    3705.2717    2.4166424 
    6680 9.3742484e-21   -797.87265   -797.87265     -5517.01    3705.2717    2.4166424 
    6690 9.3742484e-21   -797.87265   -797.87265     -5517.01    3705.2717    2.4166424 
    6700 9.3742484e-21   -797.87265   -797.87265     -5517.01    3705.2717    2.4166424 
    6710 9.3742484e-21   -797.87265   -797.87265     -5517.01    3705.2717    2.4166424 
    6720 9.3742484e-21   -797.87265   -797.87265     -5517.01    3705.2717    2.4166424 
    6730 9.3742484e-21   -797.87265   -797.87265     -5517.01    3705.2717    2.4166424 
    6740 9.3742484e-21   -797.87265   -797.87265     -5517.01    3705.2717    2.4166424 
    6750 9.3742484e-21   -797.87265   -797.87265     -5517.01    3705.2717    2.4166424 
    6760 9.3742484e-21   -797.87265   -797.87265     -5517.01    3705.2717    2.4166424 
    6770 9.3742484e-21   -797.87265   -797.87265     -5517.01    3705.2717    2.4166424 
    6780 9.3742484e-21   -797.87265   -797.87265     -5517.01    3705.2717    2.4166424 
    6790 9.3742484e-21   -797.87265   -797.87265     -5517.01    3705.2717    2.4166424 
    6800 9.3742484e-21   -797.87265   -797.87265     -5517.01    3705.2717    2.4166424 
    6810 9.3742484e-21   -797.87265   -797.87265     -5517.01    3705.2717    2.4166424 
    6820 9.3742484e-21   -797.87265   -797.87265     -5517.01    3705.2717    2.4166424 
    6830 9.3742484e-21   -797.87265   -797.87265     -5517.01    3705.2717    2.4166424 
    6840 9.3742484e-21   -797.87265   -797.87265     -5517.01    3705.2717    2.4166424 
    6850 9.3742484e-21   -797.87265   -797.87265     -5517.01    3705.2717    2.4166424 
    6860 9.3742484e-21   -797.87265   -797.87265     -5517.01    3705.2717    2.4166424 
    6870 9.3742484e-21   -797.87265   -797.87265     -5517.01    3705.2717    2.4166424 
    6880 9.3742484e-21   -797.87265   -797.87265     -5517.01    3705.2717    2.4166424 
    6890 9.3742484e-21   -797.87265   -797.87265     -5517.01    3705.2717    2.4166424 
    6900 9.3742484e-21   -797.87265   -797.87265     -5517.01    3705.2717    2.4166424 
    6910 9.3742484e-21   -797.87265   -797.87265     -5517.01    3705.2717    2.4166424 
    6920 9.3742484e-21   -797.87265   -797.87265     -5517.01    3705.2717    2.4166424 
    6930 9.3742484e-21   -797.87265   -797.87265     -5517.01    3705.2717    2.4166424 
    6940 9.3742484e-21   -797.87265   -797.87265     -5517.01    3705.2717    2.4166424 
    6950 9.3742484e-21   -797.87265   -797.87265     -5517.01    3705.2717    2.4166424 
    6960 9.3742484e-21   -797.87265   -797.87265     -5517.01    3705.2717    2.4166424 
    6970 9.3742484e-21   -797.87265   -797.87265     -5517.01    3705.2717    2.4166424 
    6980 9.3742484e-21   -797.87265   -797.87265     -5517.01    3705.2717    2.4166424 
    6990 9.3742484e-21   -797.87265   -797.87265     -5517.01    3705.2717    2.4166424 
    7000 9.3742484e-21   -797.87265   -797.87265     -5517.01    3705.2717    2.4166424 
    7010 9.3742484e-21   -797.87265   -797.87265     -5517.01    3705.2717    2.4166424 
    7020 9.3742484e-21   -797.87265   -797.87265     -5517.01    3705.2717    2.4166424 
    7030 9.3742484e-21   -797.87265   -797.87265     -5517.01    3705.2717    2.4166424 
    7040 9.3742484e-21   -797.87265   -797.87265     -5517.01    3705.2717    2.4166424 
    7050 9.3742484e-21   -797.87265   -797.87265     -5517.01    3705.2717    2.4166424 
    7060 9.3742484e-21   -797.87265   -797.87265     -5517.01    3705.2717    2.4166424 
    7070 9.3742484e-21   -797.87265   -797.87265     -5517.01    3705.2717    2.4166424 
    7080 9.3742484e-21   -797.87265   -797.87265     -5517.01    3705.2717    2.4166424 
    7090 9.3742484e-21   -797.87265   -797.87265     -5517.01    3705.2717    2.4166424 
    7100 9.3742484e-21   -797.87265   -797.87265     -5517.01    3705.2717    2.4166424 
    7110 9.3742484e-21   -797.87265   -797.87265     -5517.01    3705.2717    2.4166424 
    7120 9.3742484e-21   -797.87265   -797.87265     -5517.01    3705.2717    2.4166424 
    7130 9.3742484e-21   -797.87265   -797.87265     -5517.01    3705.2717    2.4166424 
    7140 9.3742484e-21   -797.87265   -797.87265     -5517.01    3705.2717    2.4166424 
    7150 9.3742484e-21   -797.87265   -797.87265     -5517.01    3705.2717    2.4166424 
    7160 9.3742484e-21   -797.87265   -797.87265     -5517.01    3705.2717    2.4166424 
    7170 9.3742484e-21   -797.87265   -797.87265     -5517.01    3705.2717    2.4166424 
    7180 9.3742484e-21   -797.87265   -797.87265     -5517.01    3705.2717    2.4166424 
    7190 9.3742484e-21   -797.87265   -797.87265     -5517.01    3705.2717    2.4166424 
    7200 9.3742484e-21   -797.87265   -797.87265     -5517.01    3705.2717    2.4166424 
    7210 9.3742484e-21   -797.87265   -797.87265     -5517.01    3705.2717    2.4166424 
    7220 9.3742484e-21   -797.87265   -797.87265     -5517.01    3705.2717    2.4166424 
    7230 9.3742484e-21   -797.87265   -797.87265     -5517.01    3705.2717    2.4166424 
    7240 9.3742484e-21   -797.87265   -797.87265     -5517.01    3705.2717    2.4166424 
    7250 9.3742484e-21   -797.87265   -797.87265     -5517.01    3705.2717    2.4166424 
    7260 9.3742484e-21   -797.87265   -797.87265     -5517.01    3705.2717    2.4166424 
    7270 9.3742484e-21   -797.87265   -797.87265     -5517.01    3705.2717    2.4166424 
    7280 9.3742484e-21   -797.87265   -797.87265     -5517.01    3705.2717    2.4166424 
    7290 9.3742484e-21   -797.87265   -797.87265     -5517.01    3705.2717    2.4166424 
    7300 9.3742484e-21   -797.87265   -797.87265     -5517.01    3705.2717    2.4166424 
    7310 9.3742484e-21   -797.87265   -797.87265     -5517.01    3705.2717    2.4166424 
    7320 9.3742484e-21   -797.87265   -797.87265     -5517.01    3705.2717    2.4166424 
    7330 9.3742484e-21   -797.87265   -797.87265     -5517.01    3705.2717    2.4166424 
    7340 9.3742484e-21   -797.87265   -797.87265     -5517.01    3705.2717    2.4166424 
    7350 9.3742484e-21   -797.87265   -797.87265     -5517.01    3705.2717    2.4166424 
    7360 9.3742484e-21   -797.87265   -797.87265     -5517.01    3705.2717    2.4166424 
    7370 9.3742484e-21   -797.87265   -797.87265     -5517.01    3705.2717    2.4166424 
    7380 9.3742484e-21   -797.87265   -797.87265     -5517.01    3705.2717    2.4166424 
    7390 9.3742484e-21   -797.87265   -797.87265     -5517.01    3705.2717    2.4166424 
    7400 9.3742484e-21   -797.87265   -797.87265     -5517.01    3705.2717    2.4166424 
    7410 9.3742484e-21   -797.87265   -797.87265     -5517.01    3705.2717    2.4166424 
    7420 9.3742484e-21   -797.87265   -797.87265     -5517.01    3705.2717    2.4166424 
    7430 9.3742484e-21   -797.87265   -797.87265     -5517.01    3705.2717    2.4166424 
    7440 9.3742484e-21   -797.87265   -797.87265     -5517.01    3705.2717    2.4166424 
    7450 9.3742484e-21   -797.87265   -797.87265     -5517.01    3705.2717    2.4166424 
    7460 9.3742484e-21   -797.87265   -797.87265     -5517.01    3705.2717    2.4166424 
    7470 9.3742484e-21   -797.87265   -797.87265     -5517.01    3705.2717    2.4166424 
    7480 9.3742484e-21   -797.87265   -797.87265     -5517.01    3705.2717    2.4166424 
    7490 9.3742484e-21   -797.87265   -797.87265     -5517.01    3705.2717    2.4166424 
    7500 9.3742484e-21   -797.87265   -797.87265     -5517.01    3705.2717    2.4166424 
    7510 9.3742484e-21   -797.87265   -797.87265     -5517.01    3705.2717    2.4166424 
    7520 9.3742484e-21   -797.87265   -797.87265     -5517.01    3705.2717    2.4166424 
    7530 9.3742484e-21   -797.87265   -797.87265     -5517.01    3705.2717    2.4166424 
    7540 9.3742484e-21   -797.87265   -797.87265     -5517.01    3705.2717    2.4166424 
    7550 9.3742484e-21   -797.87265   -797.87265     -5517.01    3705.2717    2.4166424 
    7560 9.3742484e-21   -797.87265   -797.87265     -5517.01    3705.2717    2.4166424 
    7570 9.3742484e-21   -797.87265   -797.87265     -5517.01    3705.2717    2.4166424 
    7580 9.3742484e-21   -797.87265   -797.87265     -5517.01    3705.2717    2.4166424 
    7590 9.3742484e-21   -797.87265   -797.87265     -5517.01    3705.2717    2.4166424 
    7600 9.3742484e-21   -797.87265   -797.87265     -5517.01    3705.2717    2.4166424 
    7610 9.3742484e-21   -797.87265   -797.87265     -5517.01    3705.2717    2.4166424 
    7620 9.3742484e-21   -797.87265   -797.87265     -5517.01    3705.2717    2.4166424 
    7630 9.3742484e-21   -797.87265   -797.87265     -5517.01    3705.2717    2.4166424 
    7640 9.3742484e-21   -797.87265   -797.87265     -5517.01    3705.2717    2.4166424 
    7650 9.3742484e-21   -797.87265   -797.87265     -5517.01    3705.2717    2.4166424 
    7660 9.3742484e-21   -797.87265   -797.87265     -5517.01    3705.2717    2.4166424 
    7670 9.3742484e-21   -797.87265   -797.87265     -5517.01    3705.2717    2.4166424 
    7680 9.3742484e-21   -797.87265   -797.87265     -5517.01    3705.2717    2.4166424 
    7690 9.3742484e-21   -797.87265   -797.87265     -5517.01    3705.2717    2.4166424 
    7700 9.3742484e-21   -797.87265   -797.87265     -5517.01    3705.2717    2.4166424 
[...]
  247900 9.3742484e-21   -748.87076   -748.87076   -134880.88    4348.4616    2.0591918 
  247910 9.3742484e-21   -748.87076   -748.87076   -134880.88    4348.4616    2.0591918 
  247920 9.3742484e-21   -748.87076   -748.87076   -134880.88    4348.4616    2.0591918 
  247930 9.3742484e-21   -748.87076   -748.87076   -134880.88    4348.4616    2.0591918 
  247940 9.3742484e-21   -748.87076   -748.87076   -134880.88    4348.4616    2.0591918 
  247950 9.3742484e-21   -748.87076   -748.87076   -134880.88    4348.4616    2.0591918 
  247960 9.3742484e-21   -748.87076   -748.87076   -134880.88    4348.4616    2.0591918 
  247970 9.3742484e-21   -748.87076   -748.87076   -134880.88    4348.4616    2.0591918 
  247980 9.3742484e-21   -748.87076   -748.87076   -134880.88    4348.4616    2.0591918 
  247990 9.3742484e-21   -748.87076   -748.87076   -134880.88    4348.4616    2.0591918 
  248000 9.3742484e-21   -748.87076   -748.87076   -134880.88    4348.4616    2.0591918 
  248010 9.3742484e-21   -748.87076   -748.87076   -134880.88    4348.4616    2.0591918 
  248020 9.3742484e-21   -748.87076   -748.87076   -134880.88    4348.4616    2.0591918 
  248030 9.3742484e-21   -748.87076   -748.87076   -134880.88    4348.4616    2.0591918 
  248040 9.3742484e-21   -748.87076   -748.87076   -134880.88    4348.4616    2.0591918 
  248050 9.3742484e-21   -748.87076   -748.87076   -134880.88    4348.4616    2.0591918 
  248060 9.3742484e-21   -748.87076   -748.87076   -134880.88    4348.4616    2.0591918 
  248070 9.3742484e-21   -748.87076   -748.87076   -134880.88    4348.4616    2.0591918 
  248080 9.3742484e-21   -748.87076   -748.87076   -134880.88    4348.4616    2.0591918 
  248090 9.3742484e-21   -748.87076   -748.87076   -134880.88    4348.4616    2.0591918 
  248100 9.3742484e-21   -748.87076   -748.87076   -134880.88    4348.4616    2.0591918 
  248110 9.3742484e-21   -748.87076   -748.87076   -134880.88    4348.4616    2.0591918 
  248120 9.3742484e-21   -748.87076   -748.87076   -134880.88    4348.4616    2.0591918 
  248130 9.3742484e-21   -748.87076   -748.87076   -134880.88    4348.4616    2.0591918 
  248140 9.3742484e-21   -748.87076   -748.87076   -134880.88    4348.4616    2.0591918 
  248150 9.3742484e-21   -748.87076   -748.87076   -134880.88    4348.4616    2.0591918 
  248160 9.3742484e-21   -748.87076   -748.87076   -134880.88    4348.4616    2.0591918 
  248170 9.3742484e-21   -748.87076   -748.87076   -134880.88    4348.4616    2.0591918 
  248180 9.3742484e-21   -748.87076   -748.87076   -134880.88    4348.4616    2.0591918 
  248190 9.3742484e-21   -748.87076   -748.87076   -134880.88    4348.4616    2.0591918 
  248200 9.3742484e-21   -748.87076   -748.87076   -134880.88    4348.4616    2.0591918 
  248210 9.3742484e-21   -748.87076   -748.87076   -134880.88    4348.4616    2.0591918 
  248220 9.3742484e-21   -748.87076   -748.87076   -134880.88    4348.4616    2.0591918 
  248230 9.3742484e-21   -748.87076   -748.87076   -134880.88    4348.4616    2.0591918 
  248240 9.3742484e-21   -748.87076   -748.87076   -134880.88    4348.4616    2.0591918 
  248250 9.3742484e-21   -748.87076   -748.87076   -134880.88    4348.4616    2.0591918 
  248260 9.3742484e-21   -748.87076   -748.87076   -134880.88    4348.4616    2.0591918 
  248270 9.3742484e-21   -748.87076   -748.87076   -134880.88    4348.4616    2.0591918 
  248280 9.3742484e-21   -748.87076   -748.87076   -134880.88    4348.4616    2.0591918 
  248290 9.3742484e-21   -748.87076   -748.87076   -134880.88    4348.4616    2.0591918 
  248300 9.3742484e-21   -748.87076   -748.87076   -134880.88    4348.4616    2.0591918 
  248310 9.3742484e-21   -748.87076   -748.87076   -134880.88    4348.4616    2.0591918 
  248320 9.3742484e-21   -748.87076   -748.87076   -134880.88    4348.4616    2.0591918 
  248330 9.3742484e-21   -748.87076   -748.87076   -134880.88    4348.4616    2.0591918 
  248340 9.3742484e-21   -748.87076   -748.87076   -134880.88    4348.4616    2.0591918 
  248350 9.3742484e-21   -748.87076   -748.87076   -134880.88    4348.4616    2.0591918 
  248360 9.3742484e-21   -748.87076   -748.87076   -134880.88    4348.4616    2.0591918 
  248370 9.3742484e-21   -748.87076   -748.87076   -134880.88    4348.4616    2.0591918 
  248380 9.3742484e-21   -748.87076   -748.87076   -134880.88    4348.4616    2.0591918 
  248390 9.3742484e-21   -748.87076   -748.87076   -134880.88    4348.4616    2.0591918 
  248400 9.3742484e-21   -748.87076   -748.87076   -134880.88    4348.4616    2.0591918 
  248410 9.3742484e-21   -748.87076   -748.87076   -134880.88    4348.4616    2.0591918 
  248420 9.3742484e-21   -748.87076   -748.87076   -134880.88    4348.4616    2.0591918 
  248430 9.3742484e-21   -748.87076   -748.87076   -134880.88    4348.4616    2.0591918 
  248440 9.3742484e-21   -748.87076   -748.87076   -134880.88    4348.4616    2.0591918 
  248450 9.3742484e-21   -748.87076   -748.87076   -134880.88    4348.4616    2.0591918 
  248460 9.3742484e-21   -748.87076   -748.87076   -134880.88    4348.4616    2.0591918 
  248470 9.3742484e-21   -748.87076   -748.87076   -134880.88    4348.4616    2.0591918 
  248480 9.3742484e-21   -748.87076   -748.87076   -134880.88    4348.4616    2.0591918 
  248490 9.3742484e-21   -748.87076   -748.87076   -134880.88    4348.4616    2.0591918 
  248500 9.3742484e-21   -748.87076   -748.87076   -134880.88    4348.4616    2.0591918 
  248510 9.3742484e-21   -748.87076   -748.87076   -134880.88    4348.4616    2.0591918 
  248520 9.3742484e-21   -748.87076   -748.87076   -134880.88    4348.4616    2.0591918 
  248530 9.3742484e-21   -748.87076   -748.87076   -134880.88    4348.4616    2.0591918 
  248540 9.3742484e-21   -748.87076   -748.87076   -134880.88    4348.4616    2.0591918 
  248550 9.3742484e-21   -748.87076   -748.87076   -134880.88    4348.4616    2.0591918 
  248560 9.3742484e-21   -748.87076   -748.87076   -134880.88    4348.4616    2.0591918 
  248570 9.3742484e-21   -748.87076   -748.87076   -134880.88    4348.4616    2.0591918 
  248580 9.3742484e-21   -748.87076   -748.87076   -134880.88    4348.4616    2.0591918 
  248590 9.3742484e-21   -748.87076   -748.87076   -134880.88    4348.4616    2.0591918 
  248600 9.3742484e-21   -748.87076   -748.87076   -134880.88    4348.4616    2.0591918 
  248610 9.3742484e-21   -748.87076   -748.87076   -134880.88    4348.4616    2.0591918 
  248620 9.3742484e-21   -748.87076   -748.87076   -134880.88    4348.4616    2.0591918 
  248630 9.3742484e-21   -748.87076   -748.87076   -134880.88    4348.4616    2.0591918 
  248640 9.3742484e-21   -748.87076   -748.87076   -134880.88    4348.4616    2.0591918 
  248650 9.3742484e-21   -748.87076   -748.87076   -134880.88    4348.4616    2.0591918 
  248660 9.3742484e-21   -748.87076   -748.87076   -134880.88    4348.4616    2.0591918 
  248670 9.3742484e-21   -748.87076   -748.87076   -134880.88    4348.4616    2.0591918 
  248680 9.3742484e-21   -748.87076   -748.87076   -134880.88    4348.4616    2.0591918 
  248690 9.3742484e-21   -748.87076   -748.87076   -134880.88    4348.4616    2.0591918 
  248700 9.3742484e-21   -748.87076   -748.87076   -134880.88    4348.4616    2.0591918 
  248710 9.3742484e-21   -748.87076   -748.87076   -134880.88    4348.4616    2.0591918 
  248720 9.3742484e-21   -748.87076   -748.87076   -134880.88    4348.4616    2.0591918 
  248730 9.3742484e-21   -748.87076   -748.87076   -134880.88    4348.4616    2.0591918 
  248740 9.3742484e-21   -748.87076   -748.87076   -134880.88    4348.4616    2.0591918 
  248750 9.3742484e-21   -748.87076   -748.87076   -134880.88    4348.4616    2.0591918 
  248760 9.3742484e-21   -748.87076   -748.87076   -134880.88    4348.4616    2.0591918 
  248770 9.3742484e-21   -748.87076   -748.87076   -134880.88    4348.4616    2.0591918 
  248780 9.3742484e-21   -748.87076   -748.87076   -134880.88    4348.4616    2.0591918 
  248790 9.3742484e-21   -748.87076   -748.87076   -134880.88    4348.4616    2.0591918 
  248800 9.3742484e-21   -748.87076   -748.87076   -134880.88    4348.4616    2.0591918 
  248810 9.3742484e-21   -748.87076   -748.87076   -134880.88    4348.4616    2.0591918 
  248820 9.3742484e-21   -748.87076   -748.87076   -134880.88    4348.4616    2.0591918 
  248830 9.3742484e-21   -748.87076   -748.87076   -134880.88    4348.4616    2.0591918 
  248840 9.3742484e-21   -748.87076   -748.87076   -134880.88    4348.4616    2.0591918 
  248850 9.3742484e-21   -748.87076   -748.87076   -134880.88    4348.4616    2.0591918 
  248860 9.3742484e-21   -748.87076   -748.87076   -134880.88    4348.4616    2.0591918 
  248870 9.3742484e-21   -748.87076   -748.87076   -134880.88    4348.4616    2.0591918 
  248880 9.3742484e-21   -748.87076   -748.87076   -134880.88    4348.4616    2.0591918 
  248890 9.3742484e-21   -748.87076   -748.87076   -134880.88    4348.4616    2.0591918 
  248900 9.3742484e-21   -748.87076   -748.87076   -134880.88    4348.4616    2.0591918 
  248910 9.3742484e-21   -748.87076   -748.87076   -134880.88    4348.4616    2.0591918 
  248920 9.3742484e-21   -748.87076   -748.87076   -134880.88    4348.4616    2.0591918 
  248930 9.3742484e-21   -748.87076   -748.87076   -134880.88    4348.4616    2.0591918 
  248940 9.3742484e-21   -748.87076   -748.87076   -134880.88    4348.4616    2.0591918 
  248950 9.3742484e-21   -748.87076   -748.87076   -134880.88    4348.4616    2.0591918 
  248960 9.3742484e-21   -748.87076   -748.87076   -134880.88    4348.4616    2.0591918 
  248970 9.3742484e-21   -748.87076   -748.87076   -134880.88    4348.4616    2.0591918 
  248980 9.3742484e-21   -748.87076   -748.87076   -134880.88    4348.4616    2.0591918 
  248990 9.3742484e-21   -748.87076   -748.87076   -134880.88    4348.4616    2.0591918 
  249000 9.3742484e-21   -748.87076   -748.87076   -134880.88    4348.4616    2.0591918 
  249010 9.3742484e-21   -748.87076   -748.87076   -134880.88    4348.4616    2.0591918 
  249020 9.3742484e-21   -748.87076   -748.87076   -134880.88    4348.4616    2.0591918 
  249030 9.3742484e-21   -748.87076   -748.87076   -134880.88    4348.4616    2.0591918 
  249040 9.3742484e-21   -748.87076   -748.87076   -134880.88    4348.4616    2.0591918 
  249050 9.3742484e-21   -748.87076   -748.87076   -134880.88    4348.4616    2.0591918 
  249060 9.3742484e-21   -748.87076   -748.87076   -134880.88    4348.4616    2.0591918 
  249070 9.3742484e-21   -748.87076   -748.87076   -134880.88    4348.4616    2.0591918 
  249080 9.3742484e-21   -748.87076   -748.87076   -134880.88    4348.4616    2.0591918 
  249090 9.3742484e-21   -748.87076   -748.87076   -134880.88    4348.4616    2.0591918 
  249100 9.3742484e-21   -748.87076   -748.87076   -134880.88    4348.4616    2.0591918 
  249110 9.3742484e-21   -748.87076   -748.87076   -134880.88    4348.4616    2.0591918 
  249120 9.3742484e-21   -748.87076   -748.87076   -134880.88    4348.4616    2.0591918 
  249130 9.3742484e-21   -748.87076   -748.87076   -134880.88    4348.4616    2.0591918 
  249140 9.3742484e-21   -748.87076   -748.87076   -134880.88    4348.4616    2.0591918 
  249150 9.3742484e-21   -748.87076   -748.87076   -134880.88    4348.4616    2.0591918 
  249160 9.3742484e-21   -748.87076   -748.87076   -134880.88    4348.4616    2.0591918 
  249170 9.3742484e-21   -748.87076   -748.87076   -134880.88    4348.4616    2.0591918 
  249180 9.3742484e-21   -748.87076   -748.87076   -134880.88    4348.4616    2.0591918 
  249190 9.3742484e-21   -748.87076   -748.87076   -134880.88    4348.4616    2.0591918 
  249200 9.3742484e-21   -748.87076   -748.87076   -134880.88    4348.4616    2.0591918 
  249210 9.3742484e-21   -748.87076   -748.87076   -134880.88    4348.4616    2.0591918 
  249220 9.3742484e-21   -748.87076   -748.87076   -134880.88    4348.4616    2.0591918 
  249230 9.3742484e-21   -748.87076   -748.87076   -134880.88    4348.4616    2.0591918 
  249240 9.3742484e-21   -748.87076   -748.87076   -134880.88    4348.4616    2.0591918 
  249250 9.3742484e-21   -748.87076   -748.87076   -134880.88    4348.4616    2.0591918 
  249260 9.3742484e-21   -748.87076   -748.87076   -134880.88    4348.4616    2.0591918 
  249270 9.3742484e-21   -748.87076   -748.87076   -134880.88    4348.4616    2.0591918 
  249280 9.3742484e-21   -748.87076   -748.87076   -134880.88    4348.4616    2.0591918 
  249290 9.3742484e-21   -748.87076   -748.87076   -134880.88    4348.4616    2.0591918 
  249300 9.3742484e-21   -748.87076   -748.87076   -134880.88    4348.4616    2.0591918 
  249310 9.3742484e-21   -748.87076   -748.87076   -134880.88    4348.4616    2.0591918 
  249320 9.3742484e-21   -748.87076   -748.87076   -134880.88    4348.4616    2.0591918 
  249330 9.3742484e-21   -748.87076   -748.87076   -134880.88    4348.4616    2.0591918 
  249340 9.3742484e-21   -748.87076   -748.87076   -134880.88    4348.4616    2.0591918 
  249350 9.3742484e-21   -748.87076   -748.87076   -134880.88    4348.4616    2.0591918 
  249360 9.3742484e-21   -748.87076   -748.87076   -134880.88    4348.4616    2.0591918 
  249370 9.3742484e-21   -748.87076   -748.87076   -134880.88    4348.4616    2.0591918 
  249380 9.3742484e-21   -748.87076   -748.87076   -134880.88    4348.4616    2.0591918 
  249390 9.3742484e-21   -748.87076   -748.87076   -134880.88    4348.4616    2.0591918 
  249400 9.3742484e-21   -748.87076   -748.87076   -134880.88    4348.4616    2.0591918 
  249410 9.3742484e-21   -748.87076   -748.87076   -134880.88    4348.4616    2.0591918 
  249420 9.3742484e-21   -748.87076   -748.87076   -134880.88    4348.4616    2.0591918 
  249430 9.3742484e-21   -748.87076   -748.87076   -134880.88    4348.4616    2.0591918 
  249440 9.3742484e-21   -748.87076   -748.87076   -134880.88    4348.4616    2.0591918 
  249450 9.3742484e-21   -748.87076   -748.87076   -134880.88    4348.4616    2.0591918 
  249460 9.3742484e-21   -748.87076   -748.87076   -134880.88    4348.4616    2.0591918 
  249470 9.3742484e-21   -748.87076   -748.87076   -134880.88    4348.4616    2.0591918 
  249480 9.3742484e-21   -748.87076   -748.87076   -134880.88    4348.4616    2.0591918 
  249490 9.3742484e-21   -748.87076   -748.87076   -134880.88    4348.4616    2.0591918 
  249500 9.3742484e-21   -748.87076   -748.87076   -134880.88    4348.4616    2.0591918 
  249510 9.3742484e-21   -748.87076   -748.87076   -134880.88    4348.4616    2.0591918 
  249520 9.3742484e-21   -748.87076   -748.87076   -134880.88    4348.4616    2.0591918 
  249530 9.3742484e-21   -748.87076   -748.87076   -134880.88    4348.4616    2.0591918 
  249540 9.3742484e-21   -748.87076   -748.87076   -134880.88    4348.4616    2.0591918 
  249550 9.3742484e-21   -748.87076   -748.87076   -134880.88    4348.4616    2.0591918 
  249560 9.3742484e-21   -748.87076   -748.87076   -134880.88    4348.4616    2.0591918 
  249570 9.3742484e-21   -748.87076   -748.87076   -134880.88    4348.4616    2.0591918 
  249580 9.3742484e-21   -748.87076   -748.87076   -134880.88    4348.4616    2.0591918 
  249590 9.3742484e-21   -748.87076   -748.87076   -134880.88    4348.4616    2.0591918 
  249600 9.3742484e-21   -748.87076   -748.87076   -134880.88    4348.4616    2.0591918 
  249610 9.3742484e-21   -748.87076   -748.87076   -134880.88    4348.4616    2.0591918 
  249620 9.3742484e-21   -748.87076   -748.87076   -134880.88    4348.4616    2.0591918 
  249630 9.3742484e-21   -748.87076   -748.87076   -134880.88    4348.4616    2.0591918 
  249640 9.3742484e-21   -748.87076   -748.87076   -134880.88    4348.4616    2.0591918 
  249650 9.3742484e-21   -748.87076   -748.87076   -134880.88    4348.4616    2.0591918 
  249660 9.3742484e-21   -748.87076   -748.87076   -134880.88    4348.4616    2.0591918 
  249670 9.3742484e-21   -748.87076   -748.87076   -134880.88    4348.4616    2.0591918 
  249680 9.3742484e-21   -748.87076   -748.87076   -134880.88    4348.4616    2.0591918 
  249690 9.3742484e-21   -748.87076   -748.87076   -134880.88    4348.4616    2.0591918 
  249700 9.3742484e-21   -748.87076   -748.87076   -134880.88    4348.4616    2.0591918 
  249710 9.3742484e-21   -748.87076   -748.87076   -134880.88    4348.4616    2.0591918 
  249720 9.3742484e-21   -748.87076   -748.87076   -134880.88    4348.4616    2.0591918 
  249730 9.3742484e-21   -748.87076   -748.87076   -134880.88    4348.4616    2.0591918 
  249740 9.3742484e-21   -748.87076   -748.87076   -134880.88    4348.4616    2.0591918 
  249750 9.3742484e-21   -748.87076   -748.87076   -134880.88    4348.4616    2.0591918 
  249760 9.3742484e-21   -748.87076   -748.87076   -134880.88    4348.4616    2.0591918 
  249770 9.3742484e-21   -748.87076   -748.87076   -134880.88    4348.4616    2.0591918 
  249780 9.3742484e-21   -748.87076   -748.87076   -134880.88    4348.4616    2.0591918 
  249790 9.3742484e-21   -748.87076   -748.87076   -134880.88    4348.4616    2.0591918 
  249800 9.3742484e-21   -748.87076   -748.87076   -134880.88    4348.4616    2.0591918 
  249810 9.3742484e-21   -748.87076   -748.87076   -134880.88    4348.4616    2.0591918 
  249820 9.3742484e-21   -748.87076   -748.87076   -134880.88    4348.4616    2.0591918 
  249830 9.3742484e-21   -748.87076   -748.87076   -134880.88    4348.4616    2.0591918 
  249840 9.3742484e-21   -748.87076   -748.87076   -134880.88    4348.4616    2.0591918 
  249850 9.3742484e-21   -748.87076   -748.87076   -134880.88    4348.4616    2.0591918 
  249860 9.3742484e-21   -748.87076   -748.87076   -134880.88    4348.4616    2.0591918 
  249870 9.3742484e-21   -748.87076   -748.87076   -134880.88    4348.4616    2.0591918 
  249880 9.3742484e-21   -748.87076   -748.87076   -134880.88    4348.4616    2.0591918 
  249890 9.3742484e-21   -748.87076   -748.87076   -134880.88    4348.4616    2.0591918 
  249900 9.3742484e-21   -748.87076   -748.87076   -134880.88    4348.4616    2.0591918 
  249910 9.3742484e-21   -748.87076   -748.87076   -134880.88    4348.4616    2.0591918 
  249920 9.3742484e-21   -748.87076   -748.87076   -134880.88    4348.4616    2.0591918 
  249930 9.3742484e-21   -748.87076   -748.87076   -134880.88    4348.4616    2.0591918 
  249940 9.3742484e-21   -748.87076   -748.87076   -134880.88    4348.4616    2.0591918 
  249950 9.3742484e-21   -748.87076   -748.87076   -134880.88    4348.4616    2.0591918 
  249960 9.3742484e-21   -748.87076   -748.87076   -134880.88    4348.4616    2.0591918 
  249970 9.3742484e-21   -748.87076   -748.87076   -134880.88    4348.4616    2.0591918 
  249980 9.3742484e-21   -748.87076   -748.87076   -134880.88    4348.4616    2.0591918 
  249990 9.3742484e-21   -748.87076   -748.87076   -134880.88    4348.4616    2.0591918 
  250000 9.3742484e-21   -748.87076   -748.87076   -134880.88    4348.4616    2.0591918 
Loop time of 2.40823 on 1 procs for 5000 steps with 192 atoms

Performance: 17938.462 ns/day, 0.001 hours/ns, 2076.211 timesteps/s
27.3% CPU use with 1 MPI tasks x 1 OpenMP threads

MPI task timing breakdown:
Section |  min time  |  avg time  |  max time  |%varavg| %total
---------------------------------------------------------------
Pair    | 0.6399     | 0.6399     | 0.6399     |   0.0 | 26.57
Neigh   | 0          | 0          | 0          |   0.0 |  0.00
Comm    | 0.015962   | 0.015962   | 0.015962   |   0.0 |  0.66
Output  | 1.7394     | 1.7394     | 1.7394     |   0.0 | 72.23
Modify  | 0.00099897 | 0.00099897 | 0.00099897 |   0.0 |  0.04
Other   |            | 0.01197    |            |       |  0.50

Nlocal:    192 ave 192 max 192 min
Histogram: 1 0 0 0 0 0 0 0 0 0
Nghost:    678 ave 678 max 678 min
Histogram: 1 0 0 0 0 0 0 0 0 0
Neighs:    0 ave 0 max 0 min
Histogram: 1 0 0 0 0 0 0 0 0 0
FullNghs:  5824 ave 5824 max 5824 min
Histogram: 1 0 0 0 0 0 0 0 0 0

Total # of neighbors = 5824
Ave neighs/atom = 30.3333
Neighbor list builds = 0
Dangerous builds = 0

jump            in.lj.for loop
#loop ends
Total wall time: 0:02:07
