LAMMPS (27 Feb 2020)
OMP_NUM_THREADS environment is not set. Defaulting to 1 thread. (../comm.cpp:94)
  using 1 OpenMP thread(s) per MPI task
dimension    3
boundary    p p p
units metal

atom_style    atomic

neighbor    2.0 bin
neigh_modify delay 5
#neigh_modify    every 1 delay 0 check yes

# create geometry

lattice        diamond 4
Lattice spacing in x,y,z = 4 4 4
region        box block 0 2 0 2 0 6
create_box    1 box
Created orthogonal box = (0 0 0) to (8 8 24)
  1 by 1 by 1 MPI processor grid
create_atoms    1 box
Created 192 atoms
  create_atoms CPU = 0 secs

mass        1 28.0855

# Stillinger-Weber potential for Si
pair_style sw
pair_coeff * * Si.sw Si
Reading potential file Si.sw with DATE: 2007-06-11

timestep 0.01

#Print
thermo          1
thermo_style custom step temp pe etotal press vol density

# minimize
dump 101 all xyz 10 si_min.xyz
fix 1 all box/relax iso 0.0
minimize 1.0e-6 1.0e-8 1000000 10000000
WARNING: Using 'neigh_modify every 1 delay 0 check yes' setting during minimization (../min.cpp:190)
Neighbor list info ...
  update every 1 steps, delay 0 steps, check yes
  max neighbors/atom: 2000, page size: 100000
  master list distance cutoff = 5.77118
  ghost atom cutoff = 5.77118
  binsize = 2.88559, bins = 3 3 9
  1 neighbor lists, perpetual/occasional/extra = 1 0 0
  (1) pair sw, perpetual
      attributes: full, newton on
      pair build: full/bin/atomonly
      stencil: full/bin/3d
      bin: standard
Per MPI rank memory allocation (min/avg/max) = 5.245 | 5.245 | 5.245 Mbytes
Step Temp PotEng TotEng Press Volume Density 
       0            0    3935.8479    3935.8479     21641420         1536    5.8296332 
       1            0    3929.6276    3929.6276     21610018    1536.4608    5.8278847 
       2            0     3923.415     3923.415     21578659    1536.9218    5.8261369 
       3            0    3917.2102    3917.2102     21547344    1537.3828    5.8243897 
       4            0    3911.0131    3911.0131     21516073    1537.8439    5.8226433 
       5            0    3904.8238    3904.8238     21484846    1538.3052    5.8208975 
       6            0    3898.6423    3898.6423     21453662    1538.7665    5.8191525 
       7            0    3892.4685    3892.4685     21422522    1539.2279    5.8174081 
       8            0    3886.3024    3886.3024     21391426    1539.6893    5.8156645 
       9            0    3880.1441    3880.1441     21360373    1540.1509    5.8139215 
      10            0    3873.9934    3873.9934     21329364    1540.6126    5.8121793 
      11            0    3867.8505    3867.8505     21298398    1541.0744    5.8104377 
      12            0    3861.7152    3861.7152     21267476    1541.5362    5.8086968 
      13            0    3855.5877    3855.5877     21236598    1541.9982    5.8069566 
      14            0    3849.4678    3849.4678     21205763    1542.4602    5.8052172 
      15            0    3843.3556    3843.3556     21174972    1542.9224    5.8034784 
      16            0     3837.251     3837.251     21144224    1543.3846    5.8017403 
      17            0    3831.1541    3831.1541     21113519    1543.8469    5.8000029 
      18            0    3825.0648    3825.0648     21082858    1544.3093    5.7982662 
      19            0    3818.9832    3818.9832     21052241    1544.7718    5.7965302 
      20            0    3812.9091    3812.9091     21021667    1545.2344    5.7947949 
      21            0    3806.8427    3806.8427     20991136    1545.6971    5.7930603 
      22            0    3800.7839    3800.7839     20960649    1546.1599    5.7913263 
      23            0    3794.7327    3794.7327     20930205    1546.6228    5.7895931 
      24            0     3788.689     3788.689     20899805    1547.0858    5.7878605 
      25            0     3782.653     3782.653     20869447    1547.5488    5.7861287 
      26            0    3776.6245    3776.6245     20839134     1548.012    5.7843975 
      27            0    3770.6035    3770.6035     20808863    1548.4752     5.782667 
      28            0    3764.5901    3764.5901     20778636    1548.9386    5.7809373 
      29            0    3758.5842    3758.5842     20748452     1549.402    5.7792082 
      30            0    3752.5859    3752.5859     20718312    1549.8655    5.7774798 
      31            0    3746.5951    3746.5951     20688215    1550.3291    5.7757521 
      32            0    3740.6118    3740.6118     20658161    1550.7928     5.774025 
      33            0     3734.636     3734.636     20628150    1551.2566    5.7722987 
      34            0    3728.6677    3728.6677     20598182    1551.7205     5.770573 
      35            0    3722.7068    3722.7068     20568258    1552.1845    5.7688481 
      36            0    3716.7535    3716.7535     20538377    1552.6486    5.7671238 
      37            0    3710.8076    3710.8076     20508538    1553.1128    5.7654002 
      38            0    3704.8691    3704.8691     20478744     1553.577    5.7636773 
      39            0    3698.9382    3698.9382     20448992    1554.0414    5.7619551 
      40            0    3693.0146    3693.0146     20419283    1554.5058    5.7602336 
      41            0    3687.0985    3687.0985     20389617    1554.9704    5.7585127 
      42            0    3681.1898    3681.1898     20359995     1555.435    5.7567926 
      43            0    3675.2885    3675.2885     20330415    1555.8997    5.7550731 
      44            0    3669.3946    3669.3946     20300879    1556.3645    5.7533543 
      45            0     3663.508     3663.508     20271385    1556.8295    5.7516362 
      46            0    3657.6289    3657.6289     20241935    1557.2945    5.7499188 
      47            0    3651.7572    3651.7572     20212527    1557.7596    5.7482021 
      48            0    3645.8928    3645.8928     20183163    1558.2247     5.746486 
      49            0    3640.0357    3640.0357     20153841      1558.69    5.7447706 
      50            0     3634.186     3634.186     20124562    1559.1554    5.7430559 
      51            0    3628.3437    3628.3437     20095327    1559.6209    5.7413419 
      52            0    3622.5086    3622.5086     20066134    1560.0864    5.7396286 
      53            0    3616.6809    3616.6809     20036984    1560.5521     5.737916 
      54            0    3610.8605    3610.8605     20007876    1561.0178     5.736204 
      55            0    3605.0474    3605.0474     19978812    1561.4836    5.7344927 
      56            0    3599.2416    3599.2416     19949790    1561.9496    5.7327821 
      57            0    3593.4431    3593.4431     19920811    1562.4156    5.7310722 
      58            0    3587.6518    3587.6518     19891875    1562.8817     5.729363 
      59            0    3581.8678    3581.8678     19862982    1563.3479    5.7276544 
      60            0     3576.091     3576.091     19834131    1563.8142    5.7259466 
      61            0    3570.3215    3570.3215     19805323    1564.2806    5.7242394 
      62            0    3564.5592    3564.5592     19776558    1564.7471    5.7225328 
      63            0    3558.8042    3558.8042     19747835    1565.2137     5.720827 
      64            0    3553.0564    3553.0564     19719155    1565.6803    5.7191218 
      65            0    3547.3157    3547.3157     19690518    1566.1471    5.7174173 
      66            0    3541.5823    3541.5823     19661923     1566.614    5.7157135 
      67            0    3535.8561    3535.8561     19633371    1567.0809    5.7140104 
      68            0     3530.137     3530.137     19604862     1567.548    5.7123079 
      69            0    3524.4251    3524.4251     19576394    1568.0151    5.7106062 
      70            0    3518.7204    3518.7204     19547970    1568.4823    5.7089051 
      71            0    3513.0228    3513.0228     19519588    1568.9496    5.7072046 
      72            0    3507.3324    3507.3324     19491248    1569.4171    5.7055049 
      73            0    3501.6491    3501.6491     19462951    1569.8846    5.7038058 
      74            0    3495.9729    3495.9729     19434696    1570.3522    5.7021074 
      75            0    3490.3038    3490.3038     19406484    1570.8198    5.7004097 
      76            0    3484.6419    3484.6419     19378314    1571.2876    5.6987126 
      77            0     3478.987     3478.987     19350186    1571.7555    5.6970162 
      78            0    3473.3392    3473.3392     19322101    1572.2235    5.6953205 
      79            0    3467.6985    3467.6985     19294058    1572.6915    5.6936255 
      80            0    3462.0649    3462.0649     19266058    1573.1597    5.6919311 
      81            0    3456.4383    3456.4383     19238099    1573.6279    5.6902374 
      82            0    3450.8188    3450.8188     19210183    1574.0963    5.6885444 
      83            0    3445.2063    3445.2063     19182309    1574.5647    5.6868521 
      84            0    3439.6009    3439.6009     19154477    1575.0333    5.6851604 
      85            0    3434.0024    3434.0024     19126688    1575.5019    5.6834694 
      86            0     3428.411     3428.411     19098941    1575.9706     5.681779 
      87            0    3422.8266    3422.8266     19071235    1576.4394    5.6800894 
      88            0    3417.2492    3417.2492     19043572    1576.9083    5.6784004 
      89            0    3411.6788    3411.6788     19015951    1577.3773    5.6767121 
      90            0    3406.1153    3406.1153     18988372    1577.8464    5.6750244 
      91            0    3400.5588    3400.5588     18960835    1578.3155    5.6733374 
      92            0    3395.0093    3395.0093     18933340    1578.7848    5.6716511 
      93            0    3389.4667    3389.4667     18905888    1579.2542    5.6699655 
      94            0    3383.9311    3383.9311     18878477    1579.7236    5.6682805 
      95            0    3378.4024    3378.4024     18851108    1580.1932    5.6665962 
      96            0    3372.8806    3372.8806     18823781    1580.6628    5.6649125 
      97            0    3367.3657    3367.3657     18796495    1581.1326    5.6632295 
      98            0    3361.8578    3361.8578     18769252    1581.6024    5.6615472 
      99            0    3356.3567    3356.3567     18742051    1582.0723    5.6598656 
     100            0    3350.8625    3350.8625     18714891    1582.5423    5.6581846 
     101            0    3345.3752    3345.3752     18687773    1583.0124    5.6565043 
     102            0    3339.8947    3339.8947     18660697    1583.4826    5.6548246 
     103            0    3334.4211    3334.4211     18633663    1583.9529    5.6531456 
     104            0    3328.9544    3328.9544     18606670    1584.4233    5.6514673 
     105            0    3323.4945    3323.4945     18579719    1584.8938    5.6497897 
     106            0    3318.0414    3318.0414     18552810    1585.3644    5.6481127 
     107            0    3312.5951    3312.5951     18525943    1585.8351    5.6464363 
     108            0    3307.1556    3307.1556     18499117    1586.3058    5.6447607 
     109            0     3301.723     3301.723     18472332    1586.7767    5.6430857 
     110            0    3296.2971    3296.2971     18445590    1587.2476    5.6414113 
     111            0    3290.8781    3290.8781     18418889    1587.7187    5.6397376 
     112            0    3285.4658    3285.4658     18392229    1588.1898    5.6380646 
     113            0    3280.0602    3280.0602     18365611     1588.661    5.6363923 
     114            0    3274.6614    3274.6614     18339034    1589.1323    5.6347206 
     115            0    3269.2694    3269.2694     18312499    1589.6037    5.6330495 
     116            0    3263.8841    3263.8841     18286005    1590.0753    5.6313792 
     117            0    3258.5055    3258.5055     18259552    1590.5468    5.6297095 
     118            0    3253.1337    3253.1337     18233141    1591.0185    5.6280404 
     119            0    3247.7685    3247.7685     18206772    1591.4903     5.626372 
     120            0    3242.4101    3242.4101     18180443    1591.9622    5.6247043 
     121            0    3237.0583    3237.0583     18154156    1592.4342    5.6230372 
     122            0    3231.7132    3231.7132     18127910    1592.9062    5.6213708 
     123            0    3226.3748    3226.3748     18101705    1593.3784     5.619705 
     124            0    3221.0431    3221.0431     18075542    1593.8507    5.6180399 
     125            0     3215.718     3215.718     18049419     1594.323    5.6163755 
     126            0    3210.3996    3210.3996     18023338    1594.7954    5.6147117 
     127            0    3205.0878    3205.0878     17997298     1595.268    5.6130486 
     128            0    3199.7826    3199.7826     17971299    1595.7406    5.6113861 
     129            0     3194.484     3194.484     17945341    1596.2133    5.6097243 
     130            0    3189.1921    3189.1921     17919425    1596.6861    5.6080632 
     131            0    3183.9067    3183.9067     17893549     1597.159    5.6064027 
     132            0    3178.6279    3178.6279     17867714     1597.632    5.6047428 
     133            0    3173.3558    3173.3558     17841920    1598.1051    5.6030836 
     134            0    3168.0901    3168.0901     17816167    1598.5783    5.6014251 
     135            0    3162.8311    3162.8311     17790455    1599.0516    5.5997672 
     136            0    3157.5786    3157.5786     17764783     1599.525      5.59811 
     137            0    3152.3326    3152.3326     17739153    1599.9984    5.5964534 
     138            0    3147.0932    3147.0932     17713563     1600.472    5.5947975 
     139            0    3141.8603    3141.8603     17688014    1600.9456    5.5931422 
     140            0    3136.6339    3136.6339     17662506    1601.4194    5.5914876 
     141            0    3131.4141    3131.4141     17637039    1601.8932    5.5898337 
     142            0    3126.2007    3126.2007     17611612    1602.3672    5.5881803 
     143            0    3120.9938    3120.9938     17586226    1602.8412    5.5865277 
     144            0    3115.7934    3115.7934     17560881    1603.3153    5.5848757 
     145            0    3110.5995    3110.5995     17535576    1603.7895    5.5832243 
     146            0     3105.412     3105.412     17510312    1604.2638    5.5815736 
     147            0     3100.231     3100.231     17485088    1604.7382    5.5799236 
     148            0    3095.0564    3095.0564     17459905    1605.2127    5.5782742 
     149            0    3089.8882    3089.8882     17434762    1605.6873    5.5766254 
     150            0    3084.7265    3084.7265     17409660     1606.162    5.5749773 
     151            0    3079.5712    3079.5712     17384598    1606.6368    5.5733299 
     152            0    3074.4223    3074.4223     17359576    1607.1116    5.5716831 
     153            0    3069.2798    3069.2798     17334595    1607.5866    5.5700369 
     154            0    3064.1437    3064.1437     17309654    1608.0616    5.5683914 
     155            0     3059.014     3059.014     17284754    1608.5368    5.5667466 
     156            0    3053.8906    3053.8906     17259894     1609.012    5.5651023 
     157            0    3048.7736    3048.7736     17235074    1609.4874    5.5634588 
     158            0    3043.6629    3043.6629     17210294    1609.9628    5.5618159 
     159            0    3038.5586    3038.5586     17185554    1610.4383    5.5601736 
     160            0    3033.4606    3033.4606     17160854    1610.9139     5.558532 
     161            0     3028.369     3028.369     17136195    1611.3896     5.556891 
     162            0    3023.2837    3023.2837     17111576    1611.8655    5.5552507 
     163            0    3018.2046    3018.2046     17086996    1612.3414     5.553611 
     164            0    3013.1319    3013.1319     17062457    1612.8173    5.5519719 
     165            0    3008.0654    3008.0654     17037958    1613.2934    5.5503336 
     166            0    3003.0053    3003.0053     17013498    1613.7696    5.5486958 
     167            0    2997.9514    2997.9514     16989079    1614.2459    5.5470587 
     168            0    2992.9037    2992.9037     16964699    1614.7222    5.5454222 
     169            0    2987.8623    2987.8623     16940359    1615.1987    5.5437864 
     170            0    2982.8272    2982.8272     16916059    1615.6753    5.5421512 
     171            0    2977.7983    2977.7983     16891799    1616.1519    5.5405167 
     172            0    2972.7756    2972.7756     16867578    1616.6286    5.5388828 
     173            0    2967.7591    2967.7591     16843397    1617.1055    5.5372496 
     174            0    2962.7488    2962.7488     16819256    1617.5824     5.535617 
     175            0    2957.7448    2957.7448     16795155    1618.0594     5.533985 
     176            0    2952.7469    2952.7469     16771093    1618.5365    5.5323537 
     177            0    2947.7552    2947.7552     16747071    1619.0138     5.530723 
     178            0    2942.7696    2942.7696     16723088    1619.4911     5.529093 
     179            0    2937.7902    2937.7902     16699145    1619.9685    5.5274636 
     180            0     2932.817     2932.817     16675241    1620.4459    5.5258348 
     181            0    2927.8499    2927.8499     16651376    1620.9235    5.5242067 
     182            0     2922.889     2922.889     16627551    1621.4012    5.5225792 
     183            0    2917.9342    2917.9342     16603766     1621.879    5.5209524 
     184            0    2912.9855    2912.9855     16580019    1622.3569    5.5193262 
     185            0    2908.0428    2908.0428     16556312    1622.8348    5.5177006 
     186            0    2903.1063    2903.1063     16532645    1623.3129    5.5160757 
     187            0    2898.1759    2898.1759     16509016     1623.791    5.5144514 
     188            0    2893.2516    2893.2516     16485427    1624.2693    5.5128278 
     189            0    2888.3333    2888.3333     16461877    1624.7476    5.5112047 
     190            0    2883.4211    2883.4211     16438366     1625.226    5.5095824 
     191            0    2878.5149    2878.5149     16414894    1625.7045    5.5079606 
     192            0    2873.6148    2873.6148     16391461    1626.1832    5.5063395 
     193            0    2868.7207    2868.7207     16368067    1626.6619    5.5047191 
     194            0    2863.8327    2863.8327     16344712    1627.1407    5.5030992 
     195            0    2858.9507    2858.9507     16321396    1627.6196      5.50148 
     196            0    2854.0746    2854.0746     16298119    1628.0986    5.4998615 
     197            0    2849.2046    2849.2046     16274880    1628.5777    5.4982436 
     198            0    2844.3405    2844.3405     16251681    1629.0568    5.4966263 
     199            0    2839.4825    2839.4825     16228520    1629.5361    5.4950096 
     200            0    2834.6304    2834.6304     16205398    1630.0155    5.4933936 
     201            0    2829.7842    2829.7842     16182315     1630.495    5.4917782 
     202            0    2824.9441    2824.9441     16159270    1630.9745    5.4901635 
     203            0    2820.1098    2820.1098     16136265    1631.4542    5.4885493 
     204            0    2815.2815    2815.2815     16113297    1631.9339    5.4869358 
     205            0    2810.4592    2810.4592     16090369    1632.4137     5.485323 
     206            0    2805.6427    2805.6427     16067478    1632.8937    5.4837108 
     207            0    2800.8322    2800.8322     16044627    1633.3737    5.4820992 
     208            0    2796.0275    2796.0275     16021813    1633.8538    5.4804882 
     209            0    2791.2288    2791.2288     15999038     1634.334    5.4788779 
     210            0    2786.4359    2786.4359     15976302    1634.8144    5.4772682 
     211            0    2781.6489    2781.6489     15953604    1635.2948    5.4756591 
     212            0    2776.8677    2776.8677     15930944    1635.7753    5.4740507 
     213            0    2772.0925    2772.0925     15908322    1636.2558    5.4724429 
     214            0     2767.323     2767.323     15885739    1636.7365    5.4708357 
     215            0    2762.5594    2762.5594     15863194    1637.2173    5.4692291 
     216            0    2757.8016    2757.8016     15840686    1637.6982    5.4676232 
     217            0    2753.0497    2753.0497     15818217    1638.1792    5.4660179 
     218            0    2748.3035    2748.3035     15795786    1638.6602    5.4644133 
     219            0    2743.5632    2743.5632     15773393    1639.1414    5.4628092 
     220            0    2738.8287    2738.8287     15751039    1639.6226    5.4612058 
     221            0    2734.0999    2734.0999     15728721     1640.104     5.459603 
     222            0    2729.3769    2729.3769     15706442    1640.5854    5.4580009 
     223            0    2724.6597    2724.6597     15684201    1641.0669    5.4563994 
     224            0    2719.9482    2719.9482     15661998    1641.5486    5.4547985 
     225            0    2715.2425    2715.2425     15639832    1642.0303    5.4531982 
     226            0    2710.5425    2710.5425     15617704    1642.5121    5.4515985 
     227            0    2705.8483    2705.8483     15595614     1642.994    5.4499995 
     228            0    2701.1597    2701.1597     15573561     1643.476    5.4484011 
     229            0    2696.4769    2696.4769     15551546    1643.9581    5.4468034 
     230            0    2691.7998    2691.7998     15529569    1644.4403    5.4452062 
     231            0    2687.1284    2687.1284     15507629    1644.9226    5.4436097 
     232            0    2682.4627    2682.4627     15485726     1645.405    5.4420138 
     233            0    2677.8026    2677.8026     15463862    1645.8875    5.4404185 
     234            0    2673.1483    2673.1483     15442034      1646.37    5.4388239 
     235            0    2668.4995    2668.4995     15420244    1646.8527    5.4372298 
     236            0    2663.8565    2663.8565     15398491    1647.3355    5.4356364 
     237            0     2659.219     2659.219     15376775    1647.8183    5.4340436 
     238            0    2654.5873    2654.5873     15355097    1648.3013    5.4324515 
     239            0    2649.9611    2649.9611     15333456    1648.7843    5.4308599 
     240            0    2645.3405    2645.3405     15311852    1649.2674     5.429269 
     241            0    2640.7256    2640.7256     15290285    1649.7507    5.4276787 
     242            0    2636.1163    2636.1163     15268755     1650.234    5.4260891 
     243            0    2631.5125    2631.5125     15247262    1650.7174       5.4245 
     244            0    2626.9143    2626.9143     15225806    1651.2009    5.4229116 
     245            0    2622.3217    2622.3217     15204387    1651.6845    5.4213238 
     246            0    2617.7347    2617.7347     15183005    1652.1682    5.4197366 
     247            0    2613.1532    2613.1532     15161660     1652.652      5.41815 
     248            0    2608.5773    2608.5773     15140352    1653.1359     5.416564 
     249            0    2604.0069    2604.0069     15119080    1653.6199    5.4149787 
     250            0    2599.4421    2599.4421     15097845     1654.104     5.413394 
     251            0    2594.8827    2594.8827     15076647    1654.5882    5.4118099 
     252            0    2590.3289    2590.3289     15055486    1655.0724    5.4102264 
     253            0    2585.7806    2585.7806     15034361    1655.5568    5.4086435 
     254            0    2581.2377    2581.2377     15013272    1656.0413    5.4070613 
     255            0    2576.7004    2576.7004     14992220    1656.5258    5.4054797 
     256            0    2572.1685    2572.1685     14971205    1657.0105    5.4038987 
     257            0    2567.6421    2567.6421     14950226    1657.4952    5.4023183 
     258            0    2563.1212    2563.1212     14929283      1657.98    5.4007385 
     259            0    2558.6057    2558.6057     14908376     1658.465    5.3991593 
     260            0    2554.0957    2554.0957     14887506      1658.95    5.3975808 
     261            0     2549.591     2549.591     14866672    1659.4351    5.3960028 
     262            0    2545.0919    2545.0919     14845874    1659.9203    5.3944255 
     263            0    2540.5981    2540.5981     14825113    1660.4056    5.3928488 
     264            0    2536.1097    2536.1097     14804387    1660.8911    5.3912727 
     265            0    2531.6268    2531.6268     14783698    1661.3766    5.3896973 
     266            0    2527.1492    2527.1492     14763044    1661.8621    5.3881224 
     267            0     2522.677     2522.677     14742426    1662.3478    5.3865481 
     268            0    2518.2102    2518.2102     14721845    1662.8336    5.3849745 
     269            0    2513.7488    2513.7488     14701299    1663.3195    5.3834015 
     270            0    2509.2927    2509.2927     14680789    1663.8055    5.3818291 
     271            0     2504.842     2504.842     14660315    1664.2915    5.3802573 
     272            0    2500.3966    2500.3966     14639876    1664.7777    5.3786861 
     273            0    2495.9565    2495.9565     14619473    1665.2639    5.3771155 
     274            0    2491.5218    2491.5218     14599106    1665.7503    5.3755456 
     275            0    2487.0924    2487.0924     14578774    1666.2367    5.3739762 
     276            0    2482.6682    2482.6682     14558478    1666.7233    5.3724075 
     277            0    2478.2494    2478.2494     14538217    1667.2099    5.3708394 
     278            0    2473.8359    2473.8359     14517992    1667.6966    5.3692718 
     279            0    2469.4276    2469.4276     14497802    1668.1835    5.3677049 
     280            0    2465.0247    2465.0247     14477648    1668.6704    5.3661386 
     281            0     2460.627     2460.627     14457528    1669.1574    5.3645729 
     282            0    2456.2345    2456.2345     14437444    1669.6445    5.3630079 
     283            0    2451.8473    2451.8473     14417395    1670.1317    5.3614434 
     284            0    2447.4653    2447.4653     14397382     1670.619    5.3598795 
     285            0    2443.0886    2443.0886     14377403    1671.1064    5.3583163 
     286            0    2438.7171    2438.7171     14357459    1671.5939    5.3567536 
     287            0    2434.3508    2434.3508     14337551    1672.0815    5.3551916 
     288            0    2429.9897    2429.9897     14317677    1672.5692    5.3536302 
     289            0    2425.6338    2425.6338     14297838    1673.0569    5.3520693 
     290            0    2421.2831    2421.2831     14278034    1673.5448    5.3505091 
     291            0    2416.9375    2416.9375     14258265    1674.0328    5.3489495 
     292            0    2412.5972    2412.5972     14238531    1674.5208    5.3473905 
     293            0     2408.262     2408.262     14218831     1675.009    5.3458321 
     294            0     2403.932     2403.932     14199166    1675.4972    5.3442743 
     295            0    2399.6071    2399.6071     14179535    1675.9855    5.3427171 
     296            0    2395.2873    2395.2873     14159939     1676.474    5.3411605 
     297            0    2390.9727    2390.9727     14140378    1676.9625    5.3396045 
     298            0    2386.6632    2386.6632     14120851    1677.4511    5.3380492 
     299            0    2382.3588    2382.3588     14101358    1677.9399    5.3364944 
     300            0    2378.0595    2378.0595     14081900    1678.4287    5.3349402 
     301            0    2373.7654    2373.7654     14062476    1678.9176    5.3333867 
     302            0    2369.4763    2369.4763     14043086    1679.4066    5.3318337 
     303            0    2365.1923    2365.1923     14023730    1679.8957    5.3302813 
     304            0    2360.9133    2360.9133     14004409    1680.3849    5.3287296 
     305            0    2356.6395    2356.6395     13985121    1680.8742    5.3271784 
     306            0    2352.3706    2352.3706     13965868    1681.3636    5.3256279 
     307            0    2348.1069    2348.1069     13946649     1681.853    5.3240779 
     308            0    2343.8481    2343.8481     13927463    1682.3426    5.3225286 
     309            0    2339.5945    2339.5945     13908312    1682.8323    5.3209798 
     310            0    2335.3458    2335.3458     13889194     1683.322    5.3194317 
     311            0    2331.1021    2331.1021     13870110    1683.8119    5.3178841 
     312            0    2326.8635    2326.8635     13851059    1684.3019    5.3163372 
     313            0    2322.6298    2322.6298     13832043    1684.7919    5.3147909 
     314            0    2318.4012    2318.4012     13813060    1685.2821    5.3132451 
     315            0    2314.1775    2314.1775     13794110    1685.7723       5.3117 
     316            0    2309.9588    2309.9588     13775194    1686.2626    5.3101554 
     317            0    2305.7451    2305.7451     13756312    1686.7531    5.3086115 
     318            0    2301.5363    2301.5363     13737463    1687.2436    5.3070681 
     319            0    2297.3325    2297.3325     13718647    1687.7342    5.3055254 
     320            0    2293.1336    2293.1336     13699864    1688.2249    5.3039832 
     321            0    2288.9397    2288.9397     13681115    1688.7157    5.3024417 
     322            0    2284.7506    2284.7506     13662399    1689.2066    5.3009007 
     323            0    2280.5666    2280.5666     13643716    1689.6976    5.2993603 
     324            0    2276.3874    2276.3874     13625066    1690.1887    5.2978206 
     325            0    2272.2131    2272.2131     13606449    1690.6799    5.2962814 
     326            0    2268.0437    2268.0437     13587865    1691.1712    5.2947428 
     327            0    2263.8792    2263.8792     13569314    1691.6626    5.2932048 
     328            0    2259.7196    2259.7196     13550796    1692.1541    5.2916675 
     329            0    2255.5648    2255.5648     13532311    1692.6456    5.2901307 
     330            0    2251.4149    2251.4149     13513858    1693.1373    5.2885945 
     331            0    2247.2699    2247.2699     13495438    1693.6291    5.2870589 
     332            0    2243.1297    2243.1297     13477051    1694.1209    5.2855239 
     333            0    2238.9944    2238.9944     13458697    1694.6129    5.2839895 
     334            0    2234.8639    2234.8639     13440374    1695.1049    5.2824557 
     335            0    2230.7382    2230.7382     13422085    1695.5971    5.2809224 
     336            0    2226.6173    2226.6173     13403827    1696.0893    5.2793898 
     337            0    2222.5012    2222.5012     13385602    1696.5816    5.2778578 
     338            0      2218.39      2218.39     13367410    1697.0741    5.2763263 
     339            0    2214.2835    2214.2835     13349249    1697.5666    5.2747955 
     340            0    2210.1818    2210.1818     13331121    1698.0592    5.2732652 
     341            0    2206.0849    2206.0849     13313025    1698.5519    5.2717356 
     342            0    2201.9927    2201.9927     13294961    1699.0447    5.2702065 
     343            0    2197.9053    2197.9053     13276929    1699.5376     5.268678 
     344            0    2193.8227    2193.8227     13258929    1700.0306    5.2671501 
     345            0    2189.7448    2189.7448     13240961    1700.5237    5.2656228 
     346            0    2185.6717    2185.6717     13223025    1701.0169    5.2640961 
     347            0    2181.6033    2181.6033     13205120    1701.5102      5.26257 
     348            0    2177.5396    2177.5396     13187248    1702.0036    5.2610445 
     349            0    2173.4806    2173.4806     13169407    1702.4971    5.2595195 
     350            0    2169.4263    2169.4263     13151597    1702.9907    5.2579952 
     351            0    2165.3767    2165.3767     13133819    1703.4843    5.2564714 
     352            0    2161.3318    2161.3318     13116073    1703.9781    5.2549482 
     353            0    2157.2916    2157.2916     13098358    1704.4719    5.2534257 
     354            0    2153.2561    2153.2561     13080675    1704.9659    5.2519037 
     355            0    2149.2253    2149.2253     13063022      1705.46    5.2503822 
     356            0    2145.1991    2145.1991     13045402    1705.9541    5.2488614 
     357            0    2141.1775    2141.1775     13027812    1706.4483    5.2473412 
     358            0    2137.1606    2137.1606     13010253    1706.9427    5.2458215 
     359            0    2133.1484    2133.1484     12992726    1707.4371    5.2443025 
     360            0    2129.1407    2129.1407     12975229    1707.9316     5.242784 
     361            0    2125.1377    2125.1377     12957764    1708.4263    5.2412661 
     362            0    2121.1393    2121.1393     12940329     1708.921    5.2397488 
     363            0    2117.1456    2117.1456     12922926    1709.4158    5.2382321 
     364            0    2113.1564    2113.1564     12905553    1709.9107     5.236716 
     365            0    2109.1718    2109.1718     12888211    1710.4057    5.2352004 
     366            0    2105.1918    2105.1918     12870899    1710.9008    5.2336855 
     367            0    2101.2164    2101.2164     12853618     1711.396    5.2321711 
     368            0    2097.2455    2097.2455     12836368    1711.8913    5.2306573 
     369            0    2093.2792    2093.2792     12819148    1712.3867    5.2291441 
     370            0    2089.3175    2089.3175     12801959    1712.8822    5.2276315 
     371            0    2085.3603    2085.3603     12784800    1713.3777    5.2261194 
     372            0    2081.4076    2081.4076     12767672    1713.8734     5.224608 
     373            0    2077.4595    2077.4595     12750573    1714.3692    5.2230971 
     374            0    2073.5159    2073.5159     12733505     1714.865    5.2215868 
     375            0    2069.5769    2069.5769     12716467     1715.361    5.2200771 
     376            0    2065.6423    2065.6423     12699459    1715.8571     5.218568 
     377            0    2061.7123    2061.7123     12682481    1716.3532    5.2170594 
     378            0    2057.7867    2057.7867     12665533    1716.8495    5.2155514 
     379            0    2053.8656    2053.8656     12648615    1717.3458    5.2140441 
     380            0     2049.949     2049.949     12631727    1717.8422    5.2125373 
     381            0    2046.0369    2046.0369     12614869    1718.3388     5.211031 
     382            0    2042.1293    2042.1293     12598040    1718.8354    5.2095254 
     383            0    2038.2261    2038.2261     12581241    1719.3321    5.2080203 
     384            0    2034.3274    2034.3274     12564471    1719.8289    5.2065158 
     385            0    2030.4331    2030.4331     12547731    1720.3259    5.2050119 
     386            0    2026.5432    2026.5432     12531021    1720.8229    5.2035086 
     387            0    2022.6578    2022.6578     12514340      1721.32    5.2020059 
     388            0    2018.7768    2018.7768     12497688    1721.8172    5.2005037 
     389            0    2014.9002    2014.9002     12481066    1722.3145    5.1990021 
     390            0    2011.0281    2011.0281     12464473    1722.8119    5.1975011 
     391            0    2007.1603    2007.1603     12447908    1723.3094    5.1960007 
     392            0    2003.2969    2003.2969     12431373     1723.807    5.1945008 
     393            0     1999.438     1999.438     12414868    1724.3046    5.1930015 
     394            0    1995.5834    1995.5834     12398391    1724.8024    5.1915028 
     395            0    1991.7331    1991.7331     12381943    1725.3003    5.1900047 
     396            0    1987.8873    1987.8873     12365523    1725.7983    5.1885072 
     397            0    1984.0458    1984.0458     12349133    1726.2963    5.1870102 
     398            0    1980.2086    1980.2086     12332771    1726.7945    5.1855138 
     399            0    1976.3758    1976.3758     12316438    1727.2928     5.184018 
     400            0    1972.5474    1972.5474     12300134    1727.7911    5.1825227 
     401            0    1968.7232    1968.7232     12283858    1728.2896     5.181028 
     402            0    1964.9034    1964.9034     12267610    1728.7881    5.1795339 
     403            0    1961.0879    1961.0879     12251391    1729.2867    5.1780404 
     404            0    1957.2767    1957.2767     12235201    1729.7855    5.1765475 
     405            0    1953.4699    1953.4699     12219038    1730.2843    5.1750551 
     406            0    1949.6673    1949.6673     12202904    1730.7832    5.1735633 
     407            0     1945.869     1945.869     12186798    1731.2823    5.1720721 
     408            0     1942.075     1942.075     12170720    1731.7814    5.1705814 
     409            0    1938.2853    1938.2853     12154670    1732.2806    5.1690913 
     410            0    1934.4998    1934.4998     12138648    1732.7799    5.1676018 
     411            0    1930.7186    1930.7186     12122654    1733.2793    5.1661129 
     412            0    1926.9417    1926.9417     12106688    1733.7788    5.1646245 
     413            0     1923.169     1923.169     12090749    1734.2784    5.1631367 
     414            0    1919.4005    1919.4005     12074838    1734.7781    5.1616495 
     415            0    1915.6363    1915.6363     12058955    1735.2779    5.1601629 
     416            0    1911.8763    1911.8763     12043099    1735.7778    5.1586768 
     417            0    1908.1206    1908.1206     12027271    1736.2778    5.1571913 
     418            0     1904.369     1904.369     12011471    1736.7779    5.1557063 
     419            0    1900.6217    1900.6217     11995697     1737.278     5.154222 
     420            0    1896.8785    1896.8785     11979951    1737.7783    5.1527382 
     421            0    1893.1396    1893.1396     11964233    1738.2787    5.1512549 
     422            0    1889.4048    1889.4048     11948541    1738.7791    5.1497723 
     423            0    1885.6742    1885.6742     11932877    1739.2797    5.1482902 
     424            0    1881.9478    1881.9478     11917239    1739.7804    5.1468087 
     425            0    1878.2256    1878.2256     11901629    1740.2811    5.1453277 
     426            0    1874.5075    1874.5075     11886045     1740.782    5.1438473 
     427            0    1870.7936    1870.7936     11870489    1741.2829    5.1423675 
     428            0    1867.0839    1867.0839     11854959    1741.7839    5.1408883 
     429            0    1863.3782    1863.3782     11839456    1742.2851    5.1394096 
     430            0    1859.6767    1859.6767     11823979    1742.7863    5.1379315 
     431            0    1855.9794    1855.9794     11808529    1743.2876    5.1364539 
     432            0    1852.2861    1852.2861     11793106    1743.7891    5.1349769 
     433            0     1848.597     1848.597     11777709    1744.2906    5.1335005 
     434            0     1844.912     1844.912     11762339    1744.7922    5.1320247 
     435            0    1841.2311    1841.2311     11746994    1745.2939    5.1305494 
     436            0    1837.5543    1837.5543     11731677    1745.7957    5.1290747 
     437            0    1833.8815    1833.8815     11716385    1746.2976    5.1276005 
     438            0    1830.2129    1830.2129     11701119    1746.7996    5.1261269 
     439            0    1826.5483    1826.5483     11685880    1747.3017    5.1246539 
     440            0    1822.8878    1822.8878     11670666    1747.8039    5.1231814 
     441            0    1819.2314    1819.2314     11655479    1748.3062    5.1217095 
     442            0     1815.579     1815.579     11640317    1748.8086    5.1202382 
     443            0    1811.9307    1811.9307     11625181    1749.3111    5.1187674 
     444            0    1808.2864    1808.2864     11610071    1749.8137    5.1172972 
     445            0    1804.6462    1804.6462     11594986    1750.3163    5.1158276 
     446            0      1801.01      1801.01     11579927    1750.8191    5.1143585 
     447            0    1797.3778    1797.3778     11564894     1751.322      5.11289 
     448            0    1793.7496    1793.7496     11549886     1751.825     5.111422 
     449            0    1790.1255    1790.1255     11534903     1752.328    5.1099546 
     450            0    1786.5053    1786.5053     11519946    1752.8312    5.1084878 
     451            0    1782.8892    1782.8892     11505014    1753.3344    5.1070215 
     452            0    1779.2771    1779.2771     11490107    1753.8378    5.1055558 
     453            0    1775.6689    1775.6689     11475225    1754.3412    5.1040907 
     454            0    1772.0647    1772.0647     11460368    1754.8448    5.1026261 
     455            0    1768.4645    1768.4645     11445537    1755.3484    5.1011621 
     456            0    1764.8683    1764.8683     11430730    1755.8521    5.0996986 
     457            0    1761.2761    1761.2761     11415948     1756.356    5.0982357 
     458            0    1757.6877    1757.6877     11401191    1756.8599    5.0967733 
     459            0    1754.1034    1754.1034     11386459    1757.3639    5.0953115 
     460            0     1750.523     1750.523     11371751     1757.868    5.0938503 
     461            0    1746.9465    1746.9465     11357068    1758.3723    5.0923896 
     462            0     1743.374     1743.374     11342409    1758.8766    5.0909295 
     463            0    1739.8054    1739.8054     11327775     1759.381      5.08947 
     464            0    1736.2407    1736.2407     11313165    1759.8855     5.088011 
     465            0      1732.68      1732.68     11298579    1760.3901    5.0865525 
     466            0    1729.1231    1729.1231     11284018    1760.8948    5.0850947 
     467            0    1725.5702    1725.5702     11269481    1761.3996    5.0836373 
     468            0    1722.0211    1722.0211     11254968    1761.9045    5.0821806 
     469            0     1718.476     1718.476     11240479    1762.4095    5.0807243 
     470            0    1714.9347    1714.9347     11226014    1762.9145    5.0792687 
     471            0    1711.3973    1711.3973     11211573    1763.4197    5.0778136 
     472            0    1707.8638    1707.8638     11197156     1763.925     5.076359 
     473            0    1704.3341    1704.3341     11182762    1764.4304    5.0749051 
     474            0    1700.8083    1700.8083     11168392    1764.9358    5.0734516 
     475            0    1697.2864    1697.2864     11154046    1765.4414    5.0719987 
     476            0    1693.7683    1693.7683     11139724    1765.9471    5.0705464 
     477            0    1690.2541    1690.2541     11125424    1766.4528    5.0690947 
     478            0    1686.7437    1686.7437     11111149    1766.9587    5.0676434 
     479            0    1683.2372    1683.2372     11096896    1767.4647    5.0661928 
     480            0    1679.7344    1679.7344     11082667    1767.9707    5.0647427 
     481            0    1676.2355    1676.2355     11068461    1768.4768    5.0632931 
     482            0    1672.7405    1672.7405     11054279    1768.9831    5.0618441 
     483            0    1669.2492    1669.2492     11040119    1769.4894    5.0603957 
     484            0    1665.7617    1665.7617     11025983    1769.9959    5.0589478 
     485            0     1662.278     1662.278     11011869    1770.5024    5.0575004 
     486            0    1658.7982    1658.7982     10997778     1771.009    5.0560536 
     487            0    1655.3221    1655.3221     10983710    1771.5158    5.0546074 
     488            0    1651.8498    1651.8498     10969665    1772.0226    5.0531617 
     489            0    1648.3813    1648.3813     10955642    1772.5295    5.0517166 
     490            0    1644.9165    1644.9165     10941642    1773.0365     5.050272 
     491            0    1641.4555    1641.4555     10927665    1773.5436    5.0488279 
     492            0    1637.9983    1637.9983     10913710    1774.0508    5.0473845 
     493            0    1634.5448    1634.5448     10899777    1774.5581    5.0459415 
     494            0    1631.0951    1631.0951     10885867    1775.0655    5.0444991 
     495            0    1627.6492    1627.6492     10871979     1775.573    5.0430573 
     496            0    1624.2069    1624.2069     10858113    1776.0806     5.041616 
     497            0    1620.7684    1620.7684     10844269    1776.5883    5.0401753 
     498            0    1617.3337    1617.3337     10830448    1777.0961    5.0387351 
     499            0    1613.9026    1613.9026     10816648     1777.604    5.0372955 
     500            0    1610.4753    1610.4753     10802870     1778.112    5.0358564 
     501            0    1607.0517    1607.0517     10789114    1778.6201    5.0344178 
     502            0    1603.6318    1603.6318     10775380    1779.1283    5.0329798 
     503            0    1600.2156    1600.2156     10761668    1779.6365    5.0315424 
     504            0    1596.8031    1596.8031     10747977    1780.1449    5.0301055 
     505            0    1593.3943    1593.3943     10734307    1780.6534    5.0286691 
     506            0    1589.9891    1589.9891     10720660    1781.1619    5.0272333 
     507            0    1586.5877    1586.5877     10707033    1781.6706    5.0257981 
     508            0    1583.1899    1583.1899     10693428    1782.1794    5.0243634 
     509            0    1579.7958    1579.7958     10679845    1782.6882    5.0229292 
     510            0    1576.4054    1576.4054     10666282    1783.1972    5.0214956 
     511            0    1573.0186    1573.0186     10652741    1783.7062    5.0200625 
     512            0    1569.6355    1569.6355     10639221    1784.2154      5.01863 
     513            0     1566.256     1566.256     10625721    1784.7246     5.017198 
     514            0    1562.8802    1562.8802     10612243    1785.2339    5.0157665 
     515            0     1559.508     1559.508     10598786    1785.7434    5.0143356 
     516            0    1556.1395    1556.1395     10585349    1786.2529    5.0129053 
     517            0    1552.7746    1552.7746     10571933    1786.7625    5.0114755 
     518            0    1549.4133    1549.4133     10558538    1787.2723    5.0100462 
     519            0    1546.0556    1546.0556     10545163    1787.7821    5.0086175 
     520            0    1542.7015    1542.7015     10531809     1788.292    5.0071893 
     521            0    1539.3511    1539.3511     10518476     1788.802    5.0057617 
     522            0    1536.0043    1536.0043     10505163    1789.3121    5.0043346 
     523            0     1532.661     1532.661     10491870    1789.8223    5.0029081 
     524            0    1529.3214    1529.3214     10478597    1790.3327     5.001482 
     525            0    1525.9853    1525.9853     10465345    1790.8431    5.0000566 
     526            0    1522.6528    1522.6528     10452112    1791.3536    4.9986317 
     527            0    1519.3239    1519.3239     10438900    1791.8642    4.9972073 
     528            0    1515.9986    1515.9986     10425708    1792.3749    4.9957834 
     529            0    1512.6769    1512.6769     10412536    1792.8857    4.9943601 
     530            0    1509.3587    1509.3587     10399383    1793.3965    4.9929374 
     531            0    1506.0441    1506.0441     10386250    1793.9075    4.9915152 
     532            0     1502.733     1502.733     10373137    1794.4186    4.9900935 
     533            0    1499.4255    1499.4255     10360044    1794.9298    4.9886723 
     534            0    1496.1216    1496.1216     10346970    1795.4411    4.9872517 
     535            0    1492.8211    1492.8211     10333916    1795.9525    4.9858317 
     536            0    1489.5243    1489.5243     10320881    1796.4639    4.9844122 
     537            0    1486.2309    1486.2309     10307866    1796.9755    4.9829932 
     538            0    1482.9411    1482.9411     10294869    1797.4872    4.9815747 
     539            0    1479.6548    1479.6548     10281893    1797.9989    4.9801568 
     540            0     1476.372     1476.372     10268935    1798.5108    4.9787395 
     541            0    1473.0928    1473.0928     10255996    1799.0228    4.9773226 
     542            0     1469.817     1469.817     10243076    1799.5348    4.9759063 
     543            0    1466.5448    1466.5448     10230176     1800.047    4.9744906 
     544            0     1463.276     1463.276     10217294    1800.5592    4.9730754 
     545            0    1460.0108    1460.0108     10204431    1801.0716    4.9716607 
     546            0     1456.749     1456.749     10191587     1801.584    4.9702465 
     547            0    1453.4907    1453.4907     10178761    1802.0965    4.9688329 
     548            0    1450.2359    1450.2359     10165955    1802.6092    4.9674199 
     549            0    1446.9846    1446.9846     10153166    1803.1219    4.9660073 
     550            0    1443.7368    1443.7368     10140396    1803.6348    4.9645953 
     551            0    1440.4924    1440.4924     10127645    1804.1477    4.9631839 
     552            0    1437.2515    1437.2515     10114912    1804.6607    4.9617729 
     553            0    1434.0141    1434.0141     10102197    1805.1738    4.9603625 
     554            0    1430.7801    1430.7801     10089501    1805.6871    4.9589527 
     555            0    1427.5496    1427.5496     10076822    1806.2004    4.9575433 
     556            0    1424.3225    1424.3225     10064162    1806.7138    4.9561345 
     557            0    1421.0988    1421.0988     10051520    1807.2273    4.9547263 
     558            0    1417.8786    1417.8786     10038895    1807.7409    4.9533186 
     559            0    1414.6619    1414.6619     10026289    1808.2546    4.9519114 
     560            0    1411.4485    1411.4485     10013700    1808.7684    4.9505047 
     561            0    1408.2386    1408.2386     10001129    1809.2823    4.9490986 
     562            0    1405.0321    1405.0321    9988576.2    1809.7963     4.947693 
     563            0    1401.8291    1401.8291    9976040.6    1810.3104    4.9462879 
     564            0    1398.6294    1398.6294    9963522.6    1810.8246    4.9448834 
     565            0    1395.4332    1395.4332    9951022.1    1811.3389    4.9434794 
     566            0    1392.2403    1392.2403      9938539    1811.8533    4.9420759 
     567            0    1389.0509    1389.0509    9926073.2    1812.3678     4.940673 
     568            0    1385.8648    1385.8648    9913624.7    1812.8824    4.9392706 
     569            0    1382.6822    1382.6822    9901193.5    1813.3971    4.9378687 
     570            0    1379.5029    1379.5029    9888779.4    1813.9118    4.9364674 
     571            0    1376.3271    1376.3271    9876382.4    1814.4267    4.9350666 
     572            0    1373.1546    1373.1546    9864002.5    1814.9417    4.9336663 
     573            0    1369.9854    1369.9854    9851639.5    1815.4568    4.9322665 
     574            0    1366.8197    1366.8197    9839293.4    1815.9719    4.9308673 
     575            0    1363.6573    1363.6573    9826964.1    1816.4872    4.9294686 
     576            0    1360.4983    1360.4983    9814651.6    1817.0026    4.9280704 
     577            0    1357.3427    1357.3427    9802355.8     1817.518    4.9266728 
     578            0    1354.1904    1354.1904    9790076.6    1818.0336    4.9252757 
     579            0    1351.0414    1351.0414      9777814    1818.5492    4.9238791 
     580            0    1347.8958    1347.8958    9765567.9     1819.065     4.922483 
     581            0    1344.7536    1344.7536    9753338.2    1819.5809    4.9210875 
     582            0    1341.6147    1341.6147    9741124.9    1820.0968    4.9196925 
     583            0    1338.4791    1338.4791      9728928    1820.6129    4.9182981 
     584            0    1335.3469    1335.3469    9716747.2     1821.129    4.9169041 
     585            0     1332.218     1332.218    9704582.7    1821.6452    4.9155107 
     586            0    1329.0924    1329.0924    9692434.3    1822.1616    4.9141178 
     587            0    1325.9702    1325.9702    9680301.9     1822.678    4.9127254 
     588            0    1322.8512    1322.8512    9668185.5    1823.1945    4.9113336 
     589            0    1319.7356    1319.7356    9656085.1    1823.7112    4.9099423 
     590            0    1316.6233    1316.6233    9644000.5    1824.2279    4.9085515 
     591            0    1313.5143    1313.5143    9631931.7    1824.7447    4.9071612 
     592            0    1310.4086    1310.4086    9619878.6    1825.2617    4.9057715 
     593            0    1307.3062    1307.3062    9607841.3    1825.7787    4.9043823 
     594            0    1304.2071    1304.2071    9595819.5    1826.2958    4.9029936 
     595            0    1301.1113    1301.1113    9583813.3     1826.813    4.9016054 
     596            0    1298.0188    1298.0188    9571822.6    1827.3303    4.9002178 
     597            0    1294.9296    1294.9296    9559847.3    1827.8478    4.8988307 
     598            0    1291.8437    1291.8437    9547887.3    1828.3653    4.8974441 
     599            0     1288.761     1288.761    9535942.7    1828.8829     4.896058 
     600            0    1285.6816    1285.6816    9524013.2    1829.4006    4.8946725 
     601            0    1282.6055    1282.6055      9512099    1829.9184    4.8932875 
     602            0    1279.5326    1279.5326    9500199.9    1830.4363     4.891903 
     603            0    1276.4631    1276.4631    9488315.8    1830.9543     4.890519 
     604            0    1273.3967    1273.3967    9476446.7    1831.4724    4.8891355 
     605            0    1270.3337    1270.3337    9464592.6    1831.9906    4.8877526 
     606            0    1267.2739    1267.2739    9452753.3    1832.5089    4.8863702 
     607            0    1264.2173    1264.2173    9440928.8    1833.0273    4.8849883 
     608            0     1261.164     1261.164      9429119    1833.5457    4.8836069 
     609            0    1258.1139    1258.1139      9417324    1834.0643    4.8822261 
     610            0    1255.0671    1255.0671    9405543.5     1834.583    4.8808457 
     611            0    1252.0235    1252.0235    9393777.6    1835.1018    4.8794659 
     612            0    1248.9831    1248.9831    9382026.2    1835.6207    4.8780866 
     613            0     1245.946     1245.946    9370289.3    1836.1396    4.8767079 
     614            0    1242.9121    1242.9121    9358566.7    1836.6587    4.8753296 
     615            0    1239.8815    1239.8815    9346858.5    1837.1779    4.8739519 
     616            0     1236.854     1236.854    9335164.5    1837.6972    4.8725747 
     617            0    1233.8298    1233.8298    9323484.8    1838.2165     4.871198 
     618            0    1230.8088    1230.8088    9311819.1     1838.736    4.8698218 
     619            0     1227.791     1227.791    9300167.6    1839.2556    4.8684461 
     620            0    1224.7764    1224.7764      9288530    1839.7752     4.867071 
     621            0     1221.765     1221.765    9276906.5     1840.295    4.8656964 
     622            0    1218.7568    1218.7568    9265296.8    1840.8148    4.8643223 
     623            0    1215.7518    1215.7518      9253701    1841.3348    4.8629487 
     624            0      1212.75      1212.75      9242119    1841.8548    4.8615756 
     625            0    1209.7514    1209.7514    9230550.7     1842.375    4.8602031 
     626            0     1206.756     1206.756    9218996.1    1842.8952     4.858831 
     627            0    1203.7638    1203.7638    9207455.1    1843.4156    4.8574595 
     628            0    1200.7747    1200.7747    9195927.7     1843.936    4.8560885 
     629            0    1197.7889    1197.7889    9184413.7    1844.4566     4.854718 
     630            0    1194.8062    1194.8062    9172913.2    1844.9772    4.8533481 
     631            0    1191.8267    1191.8267    9161426.1     1845.498    4.8519786 
     632            0    1188.8503    1188.8503    9149952.4    1846.0188    4.8506097 
     633            0    1185.8772    1185.8772    9138491.9    1846.5397    4.8492412 
     634            0    1182.9072    1182.9072    9127044.6    1847.0608    4.8478733 
     635            0    1179.9403    1179.9403    9115610.4    1847.5819    4.8465059 
     636            0    1176.9766    1176.9766    9104189.4    1848.1031    4.8451391 
     637            0    1174.0161    1174.0161    9092781.4    1848.6245    4.8437727 
     638            0    1171.0587    1171.0587    9081386.5    1849.1459    4.8424068 
     639            0    1168.1045    1168.1045    9070004.4    1849.6674    4.8410415 
     640            0    1165.1534    1165.1534    9058635.2     1850.189    4.8396767 
     641            0    1162.2055    1162.2055    9047278.9    1850.7107    4.8383124 
     642            0    1159.2607    1159.2607    9035935.3    1851.2326    4.8369486 
     643            0    1156.3191    1156.3191    9024604.5    1851.7545    4.8355853 
     644            0    1153.3806    1153.3806    9013286.3    1852.2765    4.8342225 
     645            0    1150.4452    1150.4452    9001980.7    1852.7986    4.8328602 
     646            0     1147.513     1147.513    8990687.7    1853.3208    4.8314985 
     647            0    1144.5839    1144.5839    8979407.2    1853.8431    4.8301372 
     648            0    1141.6579    1141.6579    8968139.1    1854.3655    4.8287765 
     649            0     1138.735     1138.735    8956883.5     1854.888    4.8274163 
     650            0    1135.8153    1135.8153    8945640.1    1855.4106    4.8260566 
     651            0    1132.8986    1132.8986    8934409.1    1855.9333    4.8246974 
     652            0    1129.9851    1129.9851    8923190.3    1856.4561    4.8233387 
     653            0    1127.0747    1127.0747    8911983.6     1856.979    4.8219805 
     654            0    1124.1674    1124.1674    8900789.1     1857.502    4.8206228 
     655            0    1121.2633    1121.2633    8889606.7    1858.0251    4.8192657 
     656            0    1118.3622    1118.3622    8878436.3    1858.5483     4.817909 
     657            0    1115.4642    1115.4642    8867277.9    1859.0716    4.8165529 
     658            0    1112.5693    1112.5693    8856131.4     1859.595    4.8151973 
     659            0    1109.6775    1109.6775    8844996.8    1860.1185    4.8138422 
     660            0    1106.7889    1106.7889      8833874     1860.642    4.8124875 
     661            0    1103.9033    1103.9033    8822762.9    1861.1657    4.8111334 
     662            0    1101.0208    1101.0208    8811663.6    1861.6895    4.8097798 
     663            0    1098.1413    1098.1413      8800576    1862.2134    4.8084268 
     664            0     1095.265     1095.265      8789500    1862.7374    4.8070742 
     665            0    1092.3918    1092.3918    8778435.5    1863.2614    4.8057221 
     666            0    1089.5216    1089.5216    8767382.6    1863.7856    4.8043705 
     667            0    1086.6545    1086.6545    8756341.1    1864.3099    4.8030195 
     668            0    1083.7905    1083.7905    8745311.1    1864.8342    4.8016689 
     669            0    1080.9295    1080.9295    8734292.4    1865.3587    4.8003189 
     670            0    1078.0716    1078.0716    8723285.1    1865.8833    4.7989693 
     671            0    1075.2168    1075.2168      8712289    1866.4079    4.7976203 
     672            0    1072.3651    1072.3651    8701304.2    1866.9327    4.7962718 
     673            0    1069.5164    1069.5164    8690330.5    1867.4576    4.7949237 
     674            0    1066.6708    1066.6708      8679368    1867.9825    4.7935762 
     675            0    1063.8282    1063.8282    8668416.6    1868.5076    4.7922292 
     676            0    1060.9887    1060.9887    8657476.2    1869.0327    4.7908827 
     677            0    1058.1522    1058.1522    8646546.8     1869.558    4.7895367 
     678            0    1055.3188    1055.3188    8635628.4    1870.0834    4.7881912 
     679            0    1052.4884    1052.4884    8624720.8    1870.6088    4.7868462 
     680            0    1049.6611    1049.6611    8613824.1    1871.1344    4.7855017 
     681            0    1046.8368    1046.8368    8602938.2      1871.66    4.7841577 
     682            0    1044.0156    1044.0156    8592063.1    1872.1858    4.7828142 
     683            0    1041.1974    1041.1974    8581198.7    1872.7116    4.7814712 
     684            0    1038.3823    1038.3823    8570344.9    1873.2375    4.7801288 
     685            0    1035.5701    1035.5701    8559501.8    1873.7636    4.7787868 
     686            0    1032.7611    1032.7611    8548669.3    1874.2897    4.7774453 
     687            0     1029.955     1029.955    8537847.3     1874.816    4.7761043 
     688            0     1027.152     1027.152    8527035.8    1875.3423    4.7747638 
     689            0     1024.352     1024.352    8516234.7    1875.8687    4.7734239 
     690            0     1021.555     1021.555    8505444.1    1876.3953    4.7720844 
     691            0     1018.761     1018.761    8494663.8    1876.9219    4.7707454 
     692            0    1015.9701    1015.9701    8483893.8    1877.4486     4.769407 
     693            0    1013.1822    1013.1822    8473134.1    1877.9755     4.768069 
     694            0    1010.3973    1010.3973    8462384.7    1878.5024    4.7667315 
     695            0    1007.6154    1007.6154    8451645.4    1879.0294    4.7653946 
     696            0    1004.8365    1004.8365    8440916.3    1879.5566    4.7640581 
     697            0    1002.0606    1002.0606    8430197.3    1880.0838    4.7627221 
     698            0    999.28776    999.28776    8419488.4    1880.6111    4.7613867 
     699            0     996.5179     996.5179    8408789.5    1881.1385    4.7600517 
     700            0    993.75105    993.75105    8398100.6     1881.666    4.7587172 
     701            0    990.98719    990.98719    8387421.6    1882.1937    4.7573833 
     702            0    988.22634    988.22634    8376752.5    1882.7214    4.7560498 
     703            0    985.46848    985.46848    8366093.3    1883.2492    4.7547168 
     704            0    982.71362    982.71362      8355444    1883.7771    4.7533843 
     705            0    979.96175    979.96175    8344804.4    1884.3051    4.7520524 
     706            0    977.21287    977.21287    8334174.5    1884.8332    4.7507209 
     707            0    974.46698    974.46698    8323554.4    1885.3615    4.7493899 
     708            0    971.72408    971.72408    8312943.9    1885.8898    4.7480594 
     709            0    968.98417    968.98417    8302343.1    1886.4182    4.7467294 
     710            0    966.24723    966.24723    8291751.9    1886.9467    4.7453999 
     711            0    963.51328    963.51328    8281170.2    1887.4753    4.7440709 
     712            0    960.78231    960.78231      8270598     1888.004    4.7427424 
     713            0    958.05432    958.05432    8260035.3    1888.5328    4.7414144 
     714            0     955.3293     955.3293    8249482.1    1889.0617    4.7400869 
     715            0    952.60726    952.60726    8238938.3    1889.5907    4.7387599 
     716            0    949.88819    949.88819    8228403.8    1890.1198    4.7374334 
     717            0    947.17209    947.17209    8217878.7     1890.649    4.7361074 
     718            0    944.45896    944.45896    8207362.8    1891.1783    4.7347819 
     719            0    941.74879    941.74879    8196856.3    1891.7077    4.7334568 
     720            0     939.0416     939.0416    8186358.9    1892.2372    4.7321323 
     721            0    936.33736    936.33736    8175870.8    1892.7668    4.7308082 
     722            0    933.63608    933.63608    8165391.8    1893.2965    4.7294847 
     723            0    930.93777    930.93777    8154921.9    1893.8263    4.7281616 
     724            0    928.24241    928.24241    8144461.1    1894.3561    4.7268391 
     725            0    925.55001    925.55001    8134009.4    1894.8861     4.725517 
     726            0    922.86056    922.86056    8123566.7    1895.4162    4.7241954 
     727            0    920.17407    920.17407      8113133    1895.9464    4.7228743 
     728            0    917.49053    917.49053    8102708.2    1896.4767    4.7215537 
     729            0    914.80993    914.80993    8092292.4    1897.0071    4.7202336 
     730            0    912.13229    912.13229    8081885.5    1897.5376     4.718914 
     731            0    909.45758    909.45758    8071487.4    1898.0681    4.7175949 
     732            0    906.78583    906.78583    8061098.1    1898.5988    4.7162763 
     733            0    904.11701    904.11701    8050717.6    1899.1296    4.7149582 
     734            0    901.45114    901.45114    8040345.9    1899.6605    4.7136405 
     735            0    898.78821    898.78821      8029983    1900.1915    4.7123234 
     736            0    896.12821    896.12821    8019628.7    1900.7225    4.7110067 
     737            0    893.47115    893.47115    8009283.1    1901.2537    4.7096906 
     738            0    890.81702    890.81702    7998946.2     1901.785    4.7083749 
     739            0    888.16583    888.16583    7988617.8    1902.3164    4.7070597 
     740            0    885.51756    885.51756      7978298    1902.8478     4.705745 
     741            0    882.87223    882.87223    7967986.8    1903.3794    4.7044308 
     742            0    880.22982    880.22982    7957684.2    1903.9111    4.7031171 
     743            0    877.59034    877.59034      7947390    1904.4428    4.7018038 
     744            0    874.95378    874.95378    7937104.2    1904.9747    4.7004911 
     745            0    872.32015    872.32015    7926826.9    1905.5067    4.6991788 
     746            0    869.68944    869.68944    7916558.1    1906.0387    4.6978671 
     747            0    867.06165    867.06165    7906297.6    1906.5709    4.6965558 
     748            0    864.43677    864.43677    7896045.4    1907.1032     4.695245 
     749            0    861.81482    861.81482    7885801.6    1907.6355    4.6939347 
     750            0    859.19577    859.19577    7875566.1     1908.168    4.6926249 
     751            0    856.57964    856.57964    7865338.9    1908.7006    4.6913156 
     752            0    853.96643    853.96643    7855119.9    1909.2332    4.6900067 
     753            0    851.35612    851.35612    7844909.1     1909.766    4.6886984 
     754            0    848.74872    848.74872    7834706.6    1910.2988    4.6873905 
     755            0    846.14424    846.14424    7824512.2    1910.8318    4.6860831 
     756            0    843.54265    843.54265      7814326    1911.3649    4.6847762 
     757            0    840.94397    840.94397    7804147.8     1911.898    4.6834698 
     758            0     838.3482     838.3482    7793977.8    1912.4313    4.6821639 
     759            0    835.75532    835.75532    7783815.9    1912.9646    4.6808585 
     760            0    833.16535    833.16535      7773662    1913.4981    4.6795535 
     761            0    830.57827    830.57827    7763516.1    1914.0316    4.6782491 
     762            0    827.99409    827.99409    7753378.2    1914.5653    4.6769451 
     763            0    825.41281    825.41281    7743248.4     1915.099    4.6756416 
     764            0    822.83442    822.83442    7733126.4    1915.6329    4.6743386 
     765            0    820.25893    820.25893    7723012.4    1916.1668     4.673036 
     766            0    817.68632    817.68632    7712906.4    1916.7009     4.671734 
     767            0    815.11661    815.11661    7702808.2     1917.235    4.6704324 
     768            0    812.54978    812.54978    7692717.9    1917.7693    4.6691314 
     769            0    809.98585    809.98585    7682635.4    1918.3036    4.6678308 
     770            0    807.42479    807.42479    7672560.8    1918.8381    4.6665306 
     771            0    804.86662    804.86662    7662493.9    1919.3726     4.665231 
     772            0    802.31134    802.31134    7652434.9    1919.9073    4.6639319 
     773            0    799.75893    799.75893    7642383.6     1920.442    4.6626332 
     774            0    797.20941    797.20941    7632340.1    1920.9768     4.661335 
     775            0    794.66277    794.66277    7622304.3    1921.5118    4.6600373 
     776            0      792.119      792.119    7612276.2    1922.0468    4.6587401 
     777            0    789.57811    789.57811    7602255.7     1922.582    4.6574434 
     778            0    787.04009    787.04009      7592243    1923.1172    4.6561471 
     779            0    784.50495    784.50495    7582237.9    1923.6525    4.6548513 
     780            0    781.97267    781.97267    7572240.5     1924.188    4.6535561 
     781            0    779.44327    779.44327    7562250.6    1924.7235    4.6522612 
     782            0    776.91674    776.91674    7552268.4    1925.2592    4.6509669 
     783            0    774.39308    774.39308    7542293.7    1925.7949    4.6496731 
     784            0    771.87228    771.87228    7532326.6    1926.3307    4.6483797 
     785            0    769.35435    769.35435      7522367    1926.8667    4.6470868 
     786            0    766.83928    766.83928      7512415    1927.4027    4.6457944 
     787            0    764.32707    764.32707    7502470.4    1927.9388    4.6445024 
     788            0    761.81773    761.81773    7492533.4    1928.4751     4.643211 
     789            0    759.31125    759.31125    7482603.9    1929.0114      4.64192 
     790            0    756.80762    756.80762    7472681.8    1929.5478    4.6406295 
     791            0    754.30685    754.30685    7462767.1    1930.0844    4.6393395 
     792            0    751.80894    751.80894    7452859.9     1930.621      4.63805 
     793            0    749.31388    749.31388    7442960.2    1931.1577    4.6367609 
     794            0    746.82168    746.82168    7433067.8    1931.6946    4.6354723 
     795            0    744.33232    744.33232    7423182.8    1932.2315    4.6341842 
     796            0    741.84582    741.84582    7413305.2    1932.7685    4.6328966 
     797            0    739.36217    739.36217    7403434.9    1933.3056    4.6316094 
     798            0    736.88137    736.88137      7393572    1933.8429    4.6303227 
     799            0    734.40341    734.40341    7383716.4    1934.3802    4.6290365 
     800            0     731.9283     731.9283    7373868.2    1934.9176    4.6277508 
     801            0    729.45603    729.45603    7364027.2    1935.4552    4.6264656 
     802            0    726.98661    726.98661    7354193.6    1935.9928    4.6251808 
     803            0    724.52003    724.52003    7344367.2    1936.5305    4.6238965 
     804            0    722.05629    722.05629    7334548.1    1937.0683    4.6226127 
     805            0    719.59539    719.59539    7324736.3    1937.6063    4.6213293 
     806            0    717.13732    717.13732    7314931.7    1938.1443    4.6200465 
     807            0     714.6821     714.6821    7305134.4    1938.6824    4.6187641 
     808            0    712.22971    712.22971    7295344.3    1939.2206    4.6174821 
     809            0    709.78015    709.78015    7285561.4     1939.759    4.6162007 
     810            0    707.33343    707.33343    7275785.7    1940.2974    4.6149197 
     811            0    704.88954    704.88954    7266017.2    1940.8359    4.6136392 
     812            0    702.44848    702.44848    7256255.9    1941.3745    4.6123592 
     813            0    700.01024    700.01024    7246501.7    1941.9132    4.6110796 
     814            0    697.57484    697.57484    7236754.7    1942.4521    4.6098006 
     815            0    695.14226    695.14226    7227014.9     1942.991     4.608522 
     816            0    692.71251    692.71251    7217282.2      1943.53    4.6072438 
     817            0    690.28559    690.28559    7207556.7    1944.0691    4.6059662 
     818            0    687.86149    687.86149    7197838.3    1944.6084     4.604689 
     819            0     685.4402     685.4402      7188127    1945.1477    4.6034123 
     820            0    683.02174    683.02174    7178422.8    1945.6871     4.602136 
     821            0     680.6061     680.6061    7168725.7    1946.2266    4.6008602 
     822            0    678.19328    678.19328    7159035.7    1946.7662    4.5995849 
     823            0    675.78328    675.78328    7149352.8     1947.306    4.5983101 
     824            0    673.37609    673.37609      7139677    1947.8458    4.5970358 
     825            0    670.97171    670.97171    7130008.2    1948.3857    4.5957619 
     826            0    668.57015    668.57015    7120346.5    1948.9257    4.5944884 
     827            0     666.1714     666.1714    7110691.9    1949.4658    4.5932155 
     828            0    663.77546    663.77546    7101044.3     1950.006     4.591943 
     829            0    661.38234    661.38234    7091403.8    1950.5464     4.590671 
     830            0    658.99202    658.99202    7081770.3    1951.0868    4.5893995 
     831            0     656.6045     656.6045    7072143.9    1951.6273    4.5881284 
     832            0     654.2198     654.2198    7062524.4    1952.1679    4.5868578 
     833            0     651.8379     651.8379      7052912    1952.7086    4.5855877 
     834            0     649.4588     649.4588    7043306.6    1953.2494     4.584318 
     835            0     647.0825     647.0825    7033708.2    1953.7904    4.5830488 
     836            0    644.70901    644.70901    7024116.9    1954.3314    4.5817801 
     837            0    642.33831    642.33831    7014532.5    1954.8725    4.5805119 
     838            0    639.97042    639.97042    7004955.1    1955.4137    4.5792441 
     839            0    637.60532    637.60532    6995384.7     1955.955    4.5779768 
     840            0    635.24302    635.24302    6985821.3    1956.4964    4.5767099 
     841            0    632.88352    632.88352    6976264.9     1957.038    4.5754435 
     842            0     630.5268     630.5268    6966715.4    1957.5796    4.5741776 
     843            0    628.17289    628.17289      6957173    1958.1213    4.5729122 
     844            0    625.82176    625.82176    6947637.5    1958.6631    4.5716472 
     845            0    623.47342    623.47342      6938109     1959.205    4.5703827 
     846            0    621.12787    621.12787    6928587.4     1959.747    4.5691186 
     847            0    618.78511    618.78511    6919072.8    1960.2892     4.567855 
     848            0    616.44514    616.44514    6909565.2    1960.8314    4.5665919 
     849            0    614.10795    614.10795    6900064.5    1961.3737    4.5653293 
     850            0    611.77355    611.77355    6890570.8    1961.9161    4.5640671 
     851            0    609.44193    609.44193      6881084    1962.4586    4.5628053 
     852            0    607.11309    607.11309    6871604.2    1963.0012    4.5615441 
     853            0    604.78704    604.78704    6862131.3    1963.5439    4.5602833 
     854            0    602.46376    602.46376    6852665.4    1964.0868     4.559023 
     855            0    600.14326    600.14326    6843206.4    1964.6297    4.5577631 
     856            0    597.82554    597.82554    6833754.4    1965.1727    4.5565037 
     857            0    595.51059    595.51059    6824309.3    1965.7158    4.5552448 
     858            0    593.19842    593.19842    6814871.1     1966.259    4.5539863 
     859            0    590.88902    590.88902    6805439.9    1966.8023    4.5527283 
     860            0     588.5824     588.5824    6796015.6    1967.3458    4.5514708 
     861            0    586.27854    586.27854    6786598.3    1967.8893    4.5502137 
     862            0    583.97746    583.97746    6777187.9    1968.4329    4.5489571 
     863            0    581.67914    581.67914    6767784.4    1968.9766    4.5477009 
     864            0    579.38359    579.38359    6758387.9    1969.5204    4.5464452 
     865            0    577.09081    577.09081    6748998.2    1970.0643      4.54519 
     866            0    574.80079    574.80079    6739615.6    1970.6083    4.5439352 
     867            0    572.51354    572.51354    6730239.9    1971.1525    4.5426809 
     868            0    570.22905    570.22905    6720871.1    1971.6967    4.5414271 
     869            0    567.94732    567.94732    6711509.2     1972.241    4.5401737 
     870            0    565.66835    565.66835    6702154.3    1972.7854    4.5389208 
     871            0    563.39214    563.39214    6692806.3    1973.3299    4.5376683 
     872            0    561.11868    561.11868    6683465.2    1973.8745    4.5364163 
     873            0    558.84799    558.84799    6674131.1    1974.4193    4.5351647 
     874            0    556.58004    556.58004    6664803.9    1974.9641    4.5339137 
     875            0    554.31486    554.31486    6655483.7     1975.509     4.532663 
     876            0    552.05242    552.05242    6646170.4     1976.054    4.5314129 
     877            0    549.79274    549.79274    6636864.1    1976.5991    4.5301632 
     878            0     547.5358     547.5358    6627564.6    1977.1444    4.5289139 
     879            0    545.28162    545.28162    6618272.2    1977.6897    4.5276652 
     880            0    543.03018    543.03018    6608986.7    1978.2351    4.5264168 
     881            0    540.78149    540.78149    6599708.1    1978.7806     4.525169 
     882            0    538.53555    538.53555    6590436.5    1979.3262    4.5239216 
     883            0    536.29234    536.29234    6581171.8     1979.872    4.5226746 
     884            0    534.05189    534.05189    6571914.1    1980.4178    4.5214281 
     885            0    531.81417    531.81417    6562663.3    1980.9637    4.5201821 
     886            0    529.57919    529.57919    6553419.5    1981.5097    4.5189365 
     887            0    527.34696    527.34696    6544182.7    1982.0558    4.5176914 
     888            0    525.11746    525.11746    6534952.8    1982.6021    4.5164468 
     889            0    522.89069    522.89069    6525729.9    1983.1484    4.5152026 
     890            0    520.66666    520.66666    6516513.9    1983.6948    4.5139588 
[...]
    3418            0   -831.08346   -831.08346    37841.102    3710.6892    2.4131142 
    3419            0   -831.10299   -831.10299    37589.932    3711.5189    2.4125747 
    3420            0   -831.12239   -831.12239    37338.941    3712.3487    2.4120354 
    3421            0   -831.14167   -831.14167     37088.13    3713.1787    2.4114963 
    3422            0   -831.16082   -831.16082    36837.499    3714.0087    2.4109574 
    3423            0   -831.17984   -831.17984    36587.046    3714.8389    2.4104186 
    3424            0   -831.19874   -831.19874    36336.773    3715.6692    2.4098799 
    3425            0   -831.21751   -831.21751     36086.68    3716.4997    2.4093414 
    3426            0   -831.23615   -831.23615    35836.765    3717.3302    2.4088031 
    3427            0   -831.25467   -831.25467    35587.029    3718.1609     2.408265 
    3428            0   -831.27306   -831.27306    35337.471    3718.9917     2.407727 
    3429            0   -831.29132   -831.29132    35088.093    3719.8227    2.4071891 
    3430            0   -831.30945   -831.30945    34838.892    3720.6537    2.4066514 
    3431            0   -831.32746   -831.32746    34589.871    3721.4849    2.4061139 
    3432            0   -831.34535   -831.34535    34341.027    3722.3162    2.4055766 
    3433            0    -831.3631    -831.3631    34092.361    3723.1477    2.4050394 
    3434            0   -831.38073   -831.38073    33843.874    3723.9792    2.4045023 
    3435            0   -831.39824   -831.39824    33595.564    3724.8109    2.4039654 
    3436            0   -831.41561   -831.41561    33347.432    3725.6427    2.4034287 
    3437            0   -831.43286   -831.43286    33099.478    3726.4746    2.4028922 
    3438            0   -831.44999   -831.44999    32851.701    3727.3067    2.4023558 
    3439            0   -831.46699   -831.46699    32604.102    3728.1388    2.4018195 
    3440            0   -831.48386   -831.48386     32356.68    3728.9711    2.4012834 
    3441            0   -831.50061   -831.50061    32109.435    3729.8036    2.4007475 
    3442            0   -831.51723   -831.51723    31862.367    3730.6361    2.4002118 
    3443            0   -831.53372   -831.53372    31615.476    3731.4688    2.3996762 
    3444            0   -831.55009   -831.55009    31368.762    3732.3016    2.3991407 
    3445            0   -831.56634   -831.56634    31122.224    3733.1345    2.3986054 
    3446            0   -831.58245   -831.58245    30875.863    3733.9675    2.3980703 
    3447            0   -831.59845   -831.59845    30629.679    3734.8007    2.3975353 
    3448            0   -831.61431   -831.61431     30383.67     3735.634    2.3970005 
    3449            0   -831.63005   -831.63005    30137.838    3736.4674    2.3964659 
    3450            0   -831.64567   -831.64567    29892.182    3737.3009    2.3959314 
    3451            0   -831.66116   -831.66116    29646.702    3738.1346    2.3953971 
    3452            0   -831.67652   -831.67652    29401.398    3738.9684    2.3948629 
    3453            0   -831.69176   -831.69176    29156.269    3739.8023    2.3943289 
    3454            0   -831.70688   -831.70688    28911.316    3740.6363     2.393795 
    3455            0   -831.72187   -831.72187    28666.539    3741.4705    2.3932613 
    3456            0   -831.73673   -831.73673    28421.936    3742.3048    2.3927278 
    3457            0   -831.75147   -831.75147    28177.509    3743.1392    2.3921944 
    3458            0   -831.76608   -831.76608    27933.257    3743.9737    2.3916612 
    3459            0   -831.78057   -831.78057     27689.18    3744.8083    2.3911282 
    3460            0   -831.79493   -831.79493    27445.278    3745.6431    2.3905953 
    3461            0   -831.80917   -831.80917    27201.551     3746.478    2.3900625 
    3462            0   -831.82328   -831.82328    26957.998     3747.313    2.3895299 
    3463            0   -831.83727   -831.83727     26714.62    3748.1482    2.3889975 
    3464            0   -831.85114   -831.85114    26471.416    3748.9835    2.3884652 
    3465            0   -831.86488   -831.86488    26228.387    3749.8189    2.3879331 
    3466            0   -831.87849   -831.87849    25985.531    3750.6544    2.3874012 
    3467            0   -831.89198   -831.89198     25742.85      3751.49    2.3868694 
    3468            0   -831.90535   -831.90535    25500.343    3752.3258    2.3863377 
    3469            0   -831.91859   -831.91859    25258.009    3753.1617    2.3858063 
    3470            0    -831.9317    -831.9317    25015.849    3753.9977    2.3852749 
    3471            0   -831.94469   -831.94469    24773.863    3754.8338    2.3847438 
    3472            0   -831.95756   -831.95756     24532.05    3755.6701    2.3842128 
    3473            0   -831.97031   -831.97031     24290.41    3756.5065    2.3836819 
    3474            0   -831.98293   -831.98293    24048.943     3757.343    2.3831512 
    3475            0   -831.99542   -831.99542     23807.65    3758.1797    2.3826207 
    3476            0   -832.00779   -832.00779     23566.53    3759.0164    2.3820903 
    3477            0   -832.02004   -832.02004    23325.582    3759.8533    2.3815601 
    3478            0   -832.03216   -832.03216    23084.807    3760.6903      2.38103 
    3479            0   -832.04416   -832.04416    22844.205    3761.5275    2.3805001 
    3480            0   -832.05604   -832.05604    22603.775    3762.3647    2.3799704 
    3481            0   -832.06779   -832.06779    22363.518    3763.2021    2.3794408 
    3482            0   -832.07941   -832.07941    22123.433    3764.0396    2.3789114 
    3483            0   -832.09092   -832.09092     21883.52    3764.8772    2.3783821 
    3484            0    -832.1023    -832.1023    21643.779     3765.715     2.377853 
    3485            0   -832.11355   -832.11355     21404.21    3766.5529     2.377324 
    3486            0   -832.12469   -832.12469    21164.813    3767.3909    2.3767952 
    3487            0    -832.1357    -832.1357    20925.588     3768.229    2.3762666 
    3488            0   -832.14658   -832.14658    20686.534    3769.0673    2.3757381 
    3489            0   -832.15734   -832.15734    20447.651    3769.9056    2.3752098 
    3490            0   -832.16798   -832.16798     20208.94    3770.7441    2.3746816 
    3491            0    -832.1785    -832.1785      19970.4    3771.5828    2.3741536 
    3492            0   -832.18889   -832.18889    19732.031    3772.4215    2.3736257 
    3493            0   -832.19916   -832.19916    19493.833    3773.2604     2.373098 
    3494            0    -832.2093    -832.2093    19255.806    3774.0994    2.3725704 
    3495            0   -832.21933   -832.21933     19017.95    3774.9385     2.372043 
    3496            0   -832.22923   -832.22923    18780.264    3775.7778    2.3715158 
    3497            0     -832.239     -832.239    18542.749    3776.6171    2.3709887 
    3498            0   -832.24866   -832.24866    18305.404    3777.4566    2.3704618 
    3499            0   -832.25819   -832.25819     18068.23    3778.2963     2.369935 
    3500            0    -832.2676    -832.2676    17831.226     3779.136    2.3694084 
    3501            0   -832.27688   -832.27688    17594.391    3779.9759     2.368882 
    3502            0   -832.28604   -832.28604    17357.727    3780.8159    2.3683557 
    3503            0   -832.29508   -832.29508    17121.233     3781.656    2.3678295 
    3504            0     -832.304     -832.304    16884.908    3782.4962    2.3673035 
    3505            0   -832.31279   -832.31279    16648.753    3783.3366    2.3667777 
    3506            0   -832.32147   -832.32147    16412.767    3784.1771     2.366252 
    3507            0   -832.33002   -832.33002    16176.951    3785.0177    2.3657265 
    3508            0   -832.33844   -832.33844    15941.304    3785.8584    2.3652011 
    3509            0   -832.34675   -832.34675    15705.826    3786.6993    2.3646759 
    3510            0   -832.35493   -832.35493    15470.517    3787.5403    2.3641509 
    3511            0   -832.36299   -832.36299    15235.377    3788.3814     2.363626 
    3512            0   -832.37093   -832.37093    15000.406    3789.2227    2.3631012 
    3513            0   -832.37874   -832.37874    14765.603     3790.064    2.3625766 
    3514            0   -832.38644   -832.38644    14530.969    3790.9055    2.3620522 
    3515            0   -832.39401   -832.39401    14296.504    3791.7471    2.3615279 
    3516            0   -832.40146   -832.40146    14062.207    3792.5889    2.3610038 
    3517            0   -832.40879   -832.40879    13828.078    3793.4307    2.3604798 
    3518            0   -832.41599   -832.41599    13594.117    3794.2727     2.359956 
    3519            0   -832.42307   -832.42307    13360.324    3795.1148    2.3594323 
    3520            0   -832.43004   -832.43004    13126.699    3795.9571    2.3589088 
    3521            0   -832.43688   -832.43688    12893.242    3796.7994    2.3583855 
    3522            0    -832.4436    -832.4436    12659.952    3797.6419    2.3578623 
    3523            0   -832.45019   -832.45019     12426.83    3798.4845    2.3573393 
    3524            0   -832.45667   -832.45667    12193.875    3799.3272    2.3568164 
    3525            0   -832.46302   -832.46302    11961.088    3800.1701    2.3562936 
    3526            0   -832.46925   -832.46925    11728.468    3801.0131    2.3557711 
    3527            0   -832.47536   -832.47536    11496.015    3801.8562    2.3552486 
    3528            0   -832.48135   -832.48135    11263.729    3802.6994    2.3547264 
    3529            0   -832.48722   -832.48722     11031.61    3803.5428    2.3542043 
    3530            0   -832.49297   -832.49297    10799.657    3804.3863    2.3536823 
    3531            0   -832.49859   -832.49859    10567.871    3805.2299    2.3531605 
    3532            0    -832.5041    -832.5041    10336.252    3806.0736    2.3526389 
    3533            0   -832.50948   -832.50948    10104.799    3806.9175    2.3521174 
    3534            0   -832.51474   -832.51474    9873.5126    3807.7614     2.351596 
    3535            0   -832.51988   -832.51988    9642.3922    3808.6056    2.3510748 
    3536            0    -832.5249    -832.5249    9411.4378    3809.4498    2.3505538 
    3537            0    -832.5298    -832.5298    9180.6494    3810.2941    2.3500329 
    3538            0   -832.53458   -832.53458    8950.0269    3811.1386    2.3495122 
    3539            0   -832.53924   -832.53924    8719.5701    3811.9832    2.3489916 
    3540            0   -832.54377   -832.54377     8489.279     3812.828    2.3484712 
    3541            0   -832.54819   -832.54819    8259.1533    3813.6728    2.3479509 
    3542            0   -832.55249   -832.55249     8029.193    3814.5178    2.3474308 
    3543            0   -832.55666   -832.55666    7799.3981    3815.3629    2.3469109 
    3544            0   -832.56071   -832.56071    7569.7683    3816.2081    2.3463911 
    3545            0   -832.56465   -832.56465    7340.3036    3817.0535    2.3458714 
    3546            0   -832.56846   -832.56846    7111.0038    3817.8989    2.3453519 
    3547            0   -832.57215   -832.57215    6881.8689    3818.7446    2.3448326 
    3548            0   -832.57572   -832.57572    6652.8987    3819.5903    2.3443134 
    3549            0   -832.57918   -832.57918    6424.0931    3820.4361    2.3437944 
    3550            0   -832.58251   -832.58251     6195.452    3821.2821    2.3432755 
    3551            0   -832.58572   -832.58572    5966.9753    3822.1282    2.3427567 
    3552            0   -832.58881   -832.58881     5738.663    3822.9744    2.3422382 
    3553            0   -832.59178   -832.59178    5510.5148    3823.8208    2.3417197 
    3554            0   -832.59463   -832.59463    5282.5306    3824.6673    2.3412015 
    3555            0   -832.59736   -832.59736    5054.7104    3825.5139    2.3406834 
    3556            0   -832.59998   -832.59998    4827.0541    3826.3606    2.3401654 
    3557            0   -832.60247   -832.60247    4599.5615    3827.2075    2.3396476 
    3558            0   -832.60484   -832.60484    4372.2325    3828.0544    2.3391299 
    3559            0   -832.60709   -832.60709     4145.067    3828.9015    2.3386124 
    3560            0   -832.60922   -832.60922     3918.065    3829.7488    2.3380951 
    3561            0   -832.61123   -832.61123    3691.2262    3830.5961    2.3375779 
    3562            0   -832.61313   -832.61313    3464.5506    3831.4436    2.3370608 
    3563            0    -832.6149    -832.6149    3238.0381    3832.2912    2.3365439 
    3564            0   -832.61655   -832.61655    3011.6886    3833.1389    2.3360272 
    3565            0   -832.61809   -832.61809    2785.5019    3833.9868    2.3355106 
    3566            0    -832.6195    -832.6195     2559.478    3834.8347    2.3349941 
    3567            0    -832.6208    -832.6208    2333.6167    3835.6828    2.3344778 
    3568            0   -832.62197   -832.62197    2107.9179    3836.5311    2.3339617 
    3569            0   -832.62303   -832.62303    1882.3815    3837.3794    2.3334457 
    3570            0   -832.62397   -832.62397    1657.0075    3838.2279    2.3329299 
    3571            0   -832.62478   -832.62478    1431.7956    3839.0765    2.3324142 
Loop time of 22.015 on 1 procs for 3571 steps with 192 atoms

57.3% CPU use with 1 MPI tasks x 1 OpenMP threads

Minimization stats:
  Stopping criterion = energy tolerance
  Energy initial, next-to-last, final = 
         3935.84791845     -832.623965847      -832.62478384
  Force two-norm initial, final = 62242.6 7.58415
  Force max component initial, final = 62242.6 7.58415
  Final line search alpha, max atom move = 1.1395e-05 8.64213e-05
  Iterations, force evaluations = 3571 3571

MPI task timing breakdown:
Section |  min time  |  avg time  |  max time  |%varavg| %total
---------------------------------------------------------------
Pair    | 11.615     | 11.615     | 11.615     |   0.0 | 52.76
Neigh   | 0.0039899  | 0.0039899  | 0.0039899  |   0.0 |  0.02
Comm    | 0.031916   | 0.031916   | 0.031916   |   0.0 |  0.14
Output  | 10.091     | 10.091     | 10.091     |   0.0 | 45.83
Modify  | 0          | 0          | 0          |   0.0 |  0.00
Other   |            | 0.2736     |            |       |  1.24

Nlocal:    192 ave 192 max 192 min
Histogram: 1 0 0 0 0 0 0 0 0 0
Nghost:    1009 ave 1009 max 1009 min
Histogram: 1 0 0 0 0 0 0 0 0 0
Neighs:    0 ave 0 max 0 min
Histogram: 1 0 0 0 0 0 0 0 0 0
FullNghs:  6528 ave 6528 max 6528 min
Histogram: 1 0 0 0 0 0 0 0 0 0

Total # of neighbors = 6528
Ave neighs/atom = 34
Neighbor list builds = 9
Dangerous builds = 0

unfix 1
undump 101

reset_timestep 0

thermo 10
#Relaxation
fix 1 all npt temp 300 300 0.1 iso 0 0 1
run 50
Per MPI rank memory allocation (min/avg/max) = 3.105 | 3.105 | 3.105 Mbytes
Step Temp PotEng TotEng Press Volume Density 
       0            0   -832.62478   -832.62478    1431.7956    3839.0765    2.3324142 
      10 1.571489e-21    -832.6258    -832.6258   -1086.8661    3848.6173    2.3266321 
      20 2.6134035e-21   -832.62714   -832.62714    221.73388    3843.6487    2.3296397 
      30 3.1681566e-21   -832.62651   -832.62651    767.06471    3841.5855    2.3308909 
      40 4.2134521e-21   -832.62484   -832.62484    -1410.543    3849.8502     2.325887 
      50 9.3742484e-21   -832.62489   -832.62489     1399.842     3839.197     2.332341 
Loop time of 0.0219429 on 1 procs for 50 steps with 192 atoms

Performance: 1968.750 ns/day, 0.012 hours/ns, 2278.646 timesteps/s
71.2% CPU use with 1 MPI tasks x 1 OpenMP threads

MPI task timing breakdown:
Section |  min time  |  avg time  |  max time  |%varavg| %total
---------------------------------------------------------------
Pair    | 0.0069799  | 0.0069799  | 0.0069799  |   0.0 | 31.81
Neigh   | 0          | 0          | 0          |   0.0 |  0.00
Comm    | 0          | 0          | 0          |   0.0 |  0.00
Output  | 0.012969   | 0.012969   | 0.012969   |   0.0 | 59.10
Modify  | 0.00099611 | 0.00099611 | 0.00099611 |   0.0 |  4.54
Other   |            | 0.000998   |            |       |  4.55

Nlocal:    192 ave 192 max 192 min
Histogram: 1 0 0 0 0 0 0 0 0 0
Nghost:    1009 ave 1009 max 1009 min
Histogram: 1 0 0 0 0 0 0 0 0 0
Neighs:    0 ave 0 max 0 min
Histogram: 1 0 0 0 0 0 0 0 0 0
FullNghs:  6528 ave 6528 max 6528 min
Histogram: 1 0 0 0 0 0 0 0 0 0

Total # of neighbors = 6528
Ave neighs/atom = 34
Neighbor list builds = 0
Dangerous builds = 0
unfix 1

# Calculate potential energy at different distances
#compute 1 all pressure c_ID
compute test all temp
compute 1 all pressure test

#variable      sigmazz equal c_ID[i]
variable      sigmazz equal c_1
variable        st equal step
variable        index loop 50

#loop starts
label loop
next            index

#change_box all xy final -0.1 z final 0.0 0.5 boundary p p f remap units box \
#change_box all xy scale -0.1 z boundary p p f remap units box
change_box all z final 0 0.1 boundary p p f remap units box
  orthogonal box = (-1.42846 -1.42846 0) to (9.42846 9.42846 0.1)
#change_box all xy final -0.1 z boundary p p f remap units box
#run 0


thermo 10
thermo_style custom step temp pe etotal press vol density
# NVT relaxation
fix 1 all nvt temp 300 300  0.01

unfix 1

fix 2 all print 100 "${st} ${sigmazz}" append thermo.out screen no title "# step stress "
dump 102 all xyz 100 si_min_relaxation.xyz

run 5000
WARNING: Proc sub-domain size < neighbor skin, could lead to lost atoms (../domain.cpp:936)
Per MPI rank memory allocation (min/avg/max) = 3.193 | 3.193 | 3.193 Mbytes
Step Temp PotEng TotEng Press Volume Density 
      50 9.3742484e-21 2.2293636e+11 2.2293636e+11 4.0430068e+16    11.787257    759.66075 
      60 9.3742484e-21 2.2293636e+11 2.2293636e+11 4.0430068e+16    11.787257    759.66075 
      70 9.3742484e-21 2.2293636e+11 2.2293636e+11 4.0430068e+16    11.787257    759.66075 
      80 9.3742484e-21 2.2293636e+11 2.2293636e+11 4.0430068e+16    11.787257    759.66075 
      90 9.3742484e-21 2.2293636e+11 2.2293636e+11 4.0430068e+16    11.787257    759.66075 
     100 9.3742484e-21 2.2293636e+11 2.2293636e+11 4.0430068e+16    11.787257    759.66075 
     110 9.3742484e-21 2.2293636e+11 2.2293636e+11 4.0430068e+16    11.787257    759.66075 
     120 9.3742484e-21 2.2293636e+11 2.2293636e+11 4.0430068e+16    11.787257    759.66075 
     130 9.3742484e-21 2.2293636e+11 2.2293636e+11 4.0430068e+16    11.787257    759.66075 
     140 9.3742484e-21 2.2293636e+11 2.2293636e+11 4.0430068e+16    11.787257    759.66075 
     150 9.3742484e-21 2.2293636e+11 2.2293636e+11 4.0430068e+16    11.787257    759.66075 
     160 9.3742484e-21 2.2293636e+11 2.2293636e+11 4.0430068e+16    11.787257    759.66075 
     170 9.3742484e-21 2.2293636e+11 2.2293636e+11 4.0430068e+16    11.787257    759.66075 
     180 9.3742484e-21 2.2293636e+11 2.2293636e+11 4.0430068e+16    11.787257    759.66075 
     190 9.3742484e-21 2.2293636e+11 2.2293636e+11 4.0430068e+16    11.787257    759.66075 
     200 9.3742484e-21 2.2293636e+11 2.2293636e+11 4.0430068e+16    11.787257    759.66075 
     210 9.3742484e-21 2.2293636e+11 2.2293636e+11 4.0430068e+16    11.787257    759.66075 
     220 9.3742484e-21 2.2293636e+11 2.2293636e+11 4.0430068e+16    11.787257    759.66075 
     230 9.3742484e-21 2.2293636e+11 2.2293636e+11 4.0430068e+16    11.787257    759.66075 
     240 9.3742484e-21 2.2293636e+11 2.2293636e+11 4.0430068e+16    11.787257    759.66075 
     250 9.3742484e-21 2.2293636e+11 2.2293636e+11 4.0430068e+16    11.787257    759.66075 
     260 9.3742484e-21 2.2293636e+11 2.2293636e+11 4.0430068e+16    11.787257    759.66075 
