LAMMPS (27 Feb 2020)
OMP_NUM_THREADS environment is not set. Defaulting to 1 thread. (../comm.cpp:94)
  using 1 OpenMP thread(s) per MPI task
dimension    3
boundary    p p p
units metal

atom_style    atomic

neighbor    2.0 bin
neigh_modify delay 5
#neigh_modify    every 1 delay 0 check yes

# create geometry

lattice        diamond 4
Lattice spacing in x,y,z = 4 4 4
region        box block 0 2 0 2 0 6
create_box    1 box
Created orthogonal box = (0 0 0) to (8 8 24)
  1 by 1 by 1 MPI processor grid
create_atoms    1 box
Created 192 atoms
  create_atoms CPU = 0 secs

mass        1 28.0855

# Stillinger-Weber potential for Si
pair_style sw
pair_coeff * * Si.sw Si
Reading potential file Si.sw with DATE: 2007-06-11

timestep 0.01

#Print
thermo          100
thermo_style custom step temp pe etotal press vol density

# minimize
dump 101 all xyz 10 si_min.xyz
fix 1 all box/relax iso 0.0
minimize 1.0e-6 1.0e-8 1000000 10000000
WARNING: Using 'neigh_modify every 1 delay 0 check yes' setting during minimization (../min.cpp:190)
Neighbor list info ...
  update every 1 steps, delay 0 steps, check yes
  max neighbors/atom: 2000, page size: 100000
  master list distance cutoff = 5.77118
  ghost atom cutoff = 5.77118
  binsize = 2.88559, bins = 3 3 9
  1 neighbor lists, perpetual/occasional/extra = 1 0 0
  (1) pair sw, perpetual
      attributes: full, newton on
      pair build: full/bin/atomonly
      stencil: full/bin/3d
      bin: standard
Per MPI rank memory allocation (min/avg/max) = 5.245 | 5.245 | 5.245 Mbytes
Step Temp PotEng TotEng Press Volume Density 
       0            0    3935.8479    3935.8479     21641420         1536    5.8296332 
     100            0    3350.8625    3350.8625     18714891    1582.5423    5.6581846 
     200            0    2834.6304    2834.6304     16205398    1630.0155    5.4933936 
     300            0    2378.0595    2378.0595     14081900    1678.4287    5.3349402 
     400            0    1972.5474    1972.5474     12300134    1727.7911    5.1825227 
     500            0    1610.4753    1610.4753     10802870     1778.112    5.0358564 
     600            0    1285.6816    1285.6816    9524013.2    1829.4006    4.8946725 
     700            0    993.75105    993.75105    8398100.6     1881.666    4.7587172 
     800            0     731.9283     731.9283    7373868.2    1934.9176    4.6277508 
     900            0    498.57654    498.57654    6424738.1    1989.1645    4.5015465 
    1000            0    292.42047    292.42047    5546117.5     2044.416    4.3798897 
    1100            0    112.05172    112.05172      4740853    2100.6812    4.2625776 
    1200            0   -44.137032   -44.137032    4009967.2    2157.9694    4.1494178 
    1300            0   -177.88946   -177.88946    3353170.3    2216.2898    4.0402283 
    1400            0   -291.06257   -291.06257    2769796.6    2275.6516    3.9348364 
    1500            0   -385.61443   -385.61443    2258794.9     2336.064    3.8330785 
    1600            0   -463.58787   -463.58787    1818631.3    2397.5363    3.7347993 
    1700            0   -527.08841   -527.08841    1447164.8    2460.0776    3.6398513 
    1800            0   -578.25457   -578.25457    1141480.6    2523.6972    3.5480948 
    1900            0    -619.2179    -619.2179    897671.04    2588.4042    3.4593966 
    2000            0   -652.04992   -652.04992    710567.73     2654.208    3.3736303 
    2100            0   -678.69325   -678.69325    573464.02    2721.1177     3.290676 
    2200            0   -700.87741   -700.87741     477931.1    2789.1425    3.2104192 
    2300            0   -720.02568   -720.02568    413914.23    2858.2917    3.1327511 
    2400            0   -737.17066   -737.17066    370364.55    2928.5745    3.0575684 
    2500            0   -752.90862   -752.90862    336611.16         3000    2.9847722 
    2600            0   -767.42975   -767.42975    304353.49    3072.5775    2.9142687 
    2700            0   -780.64482   -780.64482    269478.17    3146.3163    2.8459684 
    2800            0    -792.3768    -792.3768     232276.3    3221.2255    2.7797857 
    2900            0   -802.52085   -802.52085    195250.95    3297.3143    2.7156394 
    3000            0    -811.0817    -811.0817    160211.95     3374.592    2.6534516 
    3100            0    -818.1173    -818.1173    127539.04    3453.0678    2.5931482 
    3200            0   -823.69281   -823.69281     97111.31    3532.7508    2.5346584 
    3300            0   -827.87064   -827.87064    68776.335    3613.6504    2.4779145 
    3400            0   -830.71009   -830.71009    42393.038    3695.7757    2.4228517 
    3500            0    -832.2676    -832.2676    17831.226     3779.136    2.3694084 
    3571            0   -832.62478   -832.62478    1431.7956    3839.0765    2.3324142 
Loop time of 11.7754 on 1 procs for 3571 steps with 192 atoms

96.7% CPU use with 1 MPI tasks x 1 OpenMP threads

Minimization stats:
  Stopping criterion = energy tolerance
  Energy initial, next-to-last, final = 
         3935.84791845     -832.623965847      -832.62478384
  Force two-norm initial, final = 62242.6 7.58415
  Force max component initial, final = 62242.6 7.58415
  Final line search alpha, max atom move = 1.1395e-05 8.64213e-05
  Iterations, force evaluations = 3571 3571

MPI task timing breakdown:
Section |  min time  |  avg time  |  max time  |%varavg| %total
---------------------------------------------------------------
Pair    | 11.287     | 11.287     | 11.287     |   0.0 | 95.85
Neigh   | 0.0019939  | 0.0019939  | 0.0019939  |   0.0 |  0.02
Comm    | 0.018949   | 0.018949   | 0.018949   |   0.0 |  0.16
Output  | 0.2735     | 0.2735     | 0.2735     |   0.0 |  2.32
Modify  | 0          | 0          | 0          |   0.0 |  0.00
Other   |            | 0.1937     |            |       |  1.65

Nlocal:    192 ave 192 max 192 min
Histogram: 1 0 0 0 0 0 0 0 0 0
Nghost:    1009 ave 1009 max 1009 min
Histogram: 1 0 0 0 0 0 0 0 0 0
Neighs:    0 ave 0 max 0 min
Histogram: 1 0 0 0 0 0 0 0 0 0
FullNghs:  6528 ave 6528 max 6528 min
Histogram: 1 0 0 0 0 0 0 0 0 0

Total # of neighbors = 6528
Ave neighs/atom = 34
Neighbor list builds = 9
Dangerous builds = 0

unfix 1
undump 101

#---------------------------------NPT-----------------------------------------
dump 102 all xyz 10 npt.xyz
reset_timestep 0

thermo 10
#Relaxation
fix 1 all npt temp 300 300 0.1 iso 0 0 1
run 50
Per MPI rank memory allocation (min/avg/max) = 4.122 | 4.122 | 4.122 Mbytes
Step Temp PotEng TotEng Press Volume Density 
       0            0   -832.62478   -832.62478    1431.7956    3839.0765    2.3324142 
      10 1.571489e-21    -832.6258    -832.6258   -1086.8661    3848.6173    2.3266321 
      20 2.6134035e-21   -832.62714   -832.62714    221.73388    3843.6487    2.3296397 
      30 3.1681566e-21   -832.62651   -832.62651    767.06471    3841.5855    2.3308909 
      40 4.2134521e-21   -832.62484   -832.62484    -1410.543    3849.8502     2.325887 
      50 9.3742484e-21   -832.62489   -832.62489     1399.842     3839.197     2.332341 
Loop time of 0.028923 on 1 procs for 50 steps with 192 atoms

Performance: 1493.619 ns/day, 0.016 hours/ns, 1728.726 timesteps/s
54.0% CPU use with 1 MPI tasks x 1 OpenMP threads

MPI task timing breakdown:
Section |  min time  |  avg time  |  max time  |%varavg| %total
---------------------------------------------------------------
Pair    | 0.0069799  | 0.0069799  | 0.0069799  |   0.0 | 24.13
Neigh   | 0          | 0          | 0          |   0.0 |  0.00
Comm    | 0          | 0          | 0          |   0.0 |  0.00
Output  | 0.019947   | 0.019947   | 0.019947   |   0.0 | 68.97
Modify  | 0.0019958  | 0.0019958  | 0.0019958  |   0.0 |  6.90
Other   |            | 0          |            |       |  0.00

Nlocal:    192 ave 192 max 192 min
Histogram: 1 0 0 0 0 0 0 0 0 0
Nghost:    1009 ave 1009 max 1009 min
Histogram: 1 0 0 0 0 0 0 0 0 0
Neighs:    0 ave 0 max 0 min
Histogram: 1 0 0 0 0 0 0 0 0 0
FullNghs:  6528 ave 6528 max 6528 min
Histogram: 1 0 0 0 0 0 0 0 0 0

Total # of neighbors = 6528
Ave neighs/atom = 34
Neighbor list builds = 0
Dangerous builds = 0
unfix 1
undump 102

#----------------------------NVT-----------------------------------------

reset_timestep 0
# Calculate potential energy at different distances
#compute 1 all pressure c_ID
compute test all temp
compute 1 all pressure test



#variable      sigmazz equal c_ID[i]
#variable      sigmazz equal c_ID[3]
variable        sigmazz equal c_1[1]
variable        st equal step
variable        index loop 50

timestep 0.1

#loop starts
label loop
next            index

#change_box all xy final -0.1 z final 0.0 0.5 boundary p p f remap units box \
#change_box all xy scale -0.1 z boundary p p f remap units box
change_box all z delta 0 0.1 boundary p p s remap units box
  orthogonal box = (-1.42846 -1.42846 -4.28537) to (9.42846 9.42846 28.3854)
#change_box all xy final -0.1 z boundary p p f remap units box
#run 0



thermo 10
thermo_style custom step temp pe etotal press vol density c_1[1] c_1[2] c_1[3] c_1[4] c_1[5] c_1[6]
# NVT relaxation
fix 1 all nvt temp 300 300 1

unfix 1

fix 2 all print 100 "${st} ${sigmazz}" append thermo.out screen no title "# step stress "
#dump 103 all xyz 100 si_min_relaxation.xyz

run 50
Per MPI rank memory allocation (min/avg/max) = 3.097 | 3.097 | 3.097 Mbytes
Step Temp PotEng TotEng Press Volume Density c_1[1] c_1[2] c_1[3] c_1[4] c_1[5] c_1[6] 
       0 9.3742484e-21   -797.92418   -797.92418     -1911.33    3692.0349    2.4253066    -1104.645    -1104.645   -3524.6999    -59.38875 3.2634009e-08 3.3071108e-08 
      10 9.3742484e-21   -797.92418   -797.92418     -1911.33    3692.0349    2.4253066    -1104.645    -1104.645   -3524.6999    -59.38875 3.2634009e-08 3.3071108e-08 
      20 9.3742484e-21   -797.92418   -797.92418     -1911.33    3692.0349    2.4253066    -1104.645    -1104.645   -3524.6999    -59.38875 3.2634009e-08 3.3071108e-08 
      30 9.3742484e-21   -797.92418   -797.92418     -1911.33    3692.0349    2.4253066    -1104.645    -1104.645   -3524.6999    -59.38875 3.2634009e-08 3.3071108e-08 
      40 9.3742484e-21   -797.92418   -797.92418     -1911.33    3692.0349    2.4253066    -1104.645    -1104.645   -3524.6999    -59.38875 3.2634009e-08 3.3071108e-08 
      50 9.3742484e-21   -797.92418   -797.92418     -1911.33    3692.0349    2.4253066    -1104.645    -1104.645   -3524.6999    -59.38875 3.2634009e-08 3.3071108e-08 
Loop time of 0.0408909 on 1 procs for 50 steps with 192 atoms

Performance: 10564.689 ns/day, 0.002 hours/ns, 1222.765 timesteps/s
0.0% CPU use with 1 MPI tasks x 1 OpenMP threads

MPI task timing breakdown:
Section |  min time  |  avg time  |  max time  |%varavg| %total
---------------------------------------------------------------
Pair    | 0.0059879  | 0.0059879  | 0.0059879  |   0.0 | 14.64
Neigh   | 0          | 0          | 0          |   0.0 |  0.00
Comm    | 0          | 0          | 0          |   0.0 |  0.00
Output  | 0.034903   | 0.034903   | 0.034903   |   0.0 | 85.36
Modify  | 0          | 0          | 0          |   0.0 |  0.00
Other   |            | 0          |            |       |  0.00

Nlocal:    192 ave 192 max 192 min
Histogram: 1 0 0 0 0 0 0 0 0 0
Nghost:    678 ave 678 max 678 min
Histogram: 1 0 0 0 0 0 0 0 0 0
Neighs:    0 ave 0 max 0 min
Histogram: 1 0 0 0 0 0 0 0 0 0
FullNghs:  6144 ave 6144 max 6144 min
Histogram: 1 0 0 0 0 0 0 0 0 0

Total # of neighbors = 6144
Ave neighs/atom = 32
Neighbor list builds = 0
Dangerous builds = 0

jump            in.lj.for loop
next            index

#change_box all xy final -0.1 z final 0.0 0.5 boundary p p f remap units box \
#change_box all xy scale -0.1 z boundary p p f remap units box
change_box all z delta 0 0.1 boundary p p s remap units box
  orthogonal box = (-1.42846 -1.42846 -4.29505) to (9.42846 9.42846 27.1335)
#change_box all xy final -0.1 z boundary p p f remap units box
#run 0



thermo 10
thermo_style custom step temp pe etotal press vol density c_1[1] c_1[2] c_1[3] c_1[4] c_1[5] c_1[6]
# NVT relaxation
fix 1 all nvt temp 300 300 1

unfix 1

fix 2 all print 100 "${st} ${sigmazz}" append thermo.out screen no title "# step stress "
#dump 103 all xyz 100 si_min_relaxation.xyz

run 50
Per MPI rank memory allocation (min/avg/max) = 3.097 | 3.097 | 3.097 Mbytes
Step Temp PotEng TotEng Press Volume Density c_1[1] c_1[2] c_1[3] c_1[4] c_1[5] c_1[6] 
      50 9.3742484e-21   -797.87265   -797.87265     -5517.01    3705.2717    2.4166424   -3819.5573   -3819.5573   -8911.9155   -189.90522 3.2341519e-08 3.2779837e-08 
      60 9.3742484e-21   -797.87265   -797.87265     -5517.01    3705.2717    2.4166424   -3819.5573   -3819.5573   -8911.9155   -189.90522 3.2341519e-08 3.2779837e-08 
      70 9.3742484e-21   -797.87265   -797.87265     -5517.01    3705.2717    2.4166424   -3819.5573   -3819.5573   -8911.9155   -189.90522 3.2341519e-08 3.2779837e-08 
      80 9.3742484e-21   -797.87265   -797.87265     -5517.01    3705.2717    2.4166424   -3819.5573   -3819.5573   -8911.9155   -189.90522 3.2341519e-08 3.2779837e-08 
      90 9.3742484e-21   -797.87265   -797.87265     -5517.01    3705.2717    2.4166424   -3819.5573   -3819.5573   -8911.9155   -189.90522 3.2341519e-08 3.2779837e-08 
     100 9.3742484e-21   -797.87265   -797.87265     -5517.01    3705.2717    2.4166424   -3819.5573   -3819.5573   -8911.9155   -189.90522 3.2341519e-08 3.2779837e-08 
Loop time of 0.0359039 on 1 procs for 50 steps with 192 atoms

Performance: 12032.109 ns/day, 0.002 hours/ns, 1392.605 timesteps/s
43.5% CPU use with 1 MPI tasks x 1 OpenMP threads

MPI task timing breakdown:
Section |  min time  |  avg time  |  max time  |%varavg| %total
---------------------------------------------------------------
Pair    | 0.0059845  | 0.0059845  | 0.0059845  |   0.0 | 16.67
Neigh   | 0          | 0          | 0          |   0.0 |  0.00
Comm    | 0          | 0          | 0          |   0.0 |  0.00
Output  | 0.029919   | 0.029919   | 0.029919   |   0.0 | 83.33
Modify  | 0          | 0          | 0          |   0.0 |  0.00
Other   |            | 0          |            |       |  0.00

Nlocal:    192 ave 192 max 192 min
Histogram: 1 0 0 0 0 0 0 0 0 0
Nghost:    678 ave 678 max 678 min
Histogram: 1 0 0 0 0 0 0 0 0 0
Neighs:    0 ave 0 max 0 min
Histogram: 1 0 0 0 0 0 0 0 0 0
FullNghs:  6144 ave 6144 max 6144 min
Histogram: 1 0 0 0 0 0 0 0 0 0

Total # of neighbors = 6144
Ave neighs/atom = 32
Neighbor list builds = 0
Dangerous builds = 0

jump            in.lj.for loop
next            index

#change_box all xy final -0.1 z final 0.0 0.5 boundary p p f remap units box \
#change_box all xy scale -0.1 z boundary p p f remap units box
change_box all z delta 0 0.1 boundary p p s remap units box
  orthogonal box = (-1.42846 -1.42846 -4.30121) to (9.42846 9.42846 27.2397)
#change_box all xy final -0.1 z boundary p p f remap units box
#run 0



thermo 10
thermo_style custom step temp pe etotal press vol density c_1[1] c_1[2] c_1[3] c_1[4] c_1[5] c_1[6]
# NVT relaxation
fix 1 all nvt temp 300 300 1

unfix 1

fix 2 all print 100 "${st} ${sigmazz}" append thermo.out screen no title "# step stress "
#dump 103 all xyz 100 si_min_relaxation.xyz

run 50
Per MPI rank memory allocation (min/avg/max) = 3.097 | 3.097 | 3.097 Mbytes
Step Temp PotEng TotEng Press Volume Density c_1[1] c_1[2] c_1[3] c_1[4] c_1[5] c_1[6] 
     100 9.3742484e-21   -797.77664   -797.77664   -9078.3299     3718.546    2.4080156   -6488.5155   -6488.5155   -14257.959   -318.37505 3.2046473e-08 3.247589e-08 
     110 9.3742484e-21   -797.77664   -797.77664   -9078.3299     3718.546    2.4080156   -6488.5155   -6488.5155   -14257.959   -318.37505 3.2046473e-08 3.247589e-08 
     120 9.3742484e-21   -797.77664   -797.77664   -9078.3299     3718.546    2.4080156   -6488.5155   -6488.5155   -14257.959   -318.37505 3.2046473e-08 3.247589e-08 
     130 9.3742484e-21   -797.77664   -797.77664   -9078.3299     3718.546    2.4080156   -6488.5155   -6488.5155   -14257.959   -318.37505 3.2046473e-08 3.247589e-08 
     140 9.3742484e-21   -797.77664   -797.77664   -9078.3299     3718.546    2.4080156   -6488.5155   -6488.5155   -14257.959   -318.37505 3.2046473e-08 3.247589e-08 
     150 9.3742484e-21   -797.77664   -797.77664   -9078.3299     3718.546    2.4080156   -6488.5155   -6488.5155   -14257.959   -318.37505 3.2046473e-08 3.247589e-08 
Loop time of 0.0398951 on 1 procs for 50 steps with 192 atoms

Performance: 10828.409 ns/day, 0.002 hours/ns, 1253.288 timesteps/s
0.0% CPU use with 1 MPI tasks x 1 OpenMP threads

MPI task timing breakdown:
Section |  min time  |  avg time  |  max time  |%varavg| %total
---------------------------------------------------------------
Pair    | 0.0049877  | 0.0049877  | 0.0049877  |   0.0 | 12.50
Neigh   | 0          | 0          | 0          |   0.0 |  0.00
Comm    | 0          | 0          | 0          |   0.0 |  0.00
Output  | 0.034907   | 0.034907   | 0.034907   |   0.0 | 87.50
Modify  | 0          | 0          | 0          |   0.0 |  0.00
Other   |            | 0          |            |       |  0.00

Nlocal:    192 ave 192 max 192 min
Histogram: 1 0 0 0 0 0 0 0 0 0
Nghost:    678 ave 678 max 678 min
Histogram: 1 0 0 0 0 0 0 0 0 0
Neighs:    0 ave 0 max 0 min
Histogram: 1 0 0 0 0 0 0 0 0 0
FullNghs:  6144 ave 6144 max 6144 min
Histogram: 1 0 0 0 0 0 0 0 0 0

Total # of neighbors = 6144
Ave neighs/atom = 32
Neighbor list builds = 0
Dangerous builds = 0

jump            in.lj.for loop
next            index

#change_box all xy final -0.1 z final 0.0 0.5 boundary p p f remap units box \
#change_box all xy scale -0.1 z boundary p p f remap units box
change_box all z delta 0 0.1 boundary p p s remap units box
  orthogonal box = (-1.42846 -1.42846 -4.30753) to (9.42846 9.42846 27.346)
#change_box all xy final -0.1 z boundary p p f remap units box
#run 0



thermo 10
thermo_style custom step temp pe etotal press vol density c_1[1] c_1[2] c_1[3] c_1[4] c_1[5] c_1[6]
# NVT relaxation
fix 1 all nvt temp 300 300 1

unfix 1

fix 2 all print 100 "${st} ${sigmazz}" append thermo.out screen no title "# step stress "
#dump 103 all xyz 100 si_min_relaxation.xyz

run 50
Per MPI rank memory allocation (min/avg/max) = 3.097 | 3.097 | 3.097 Mbytes
Step Temp PotEng TotEng Press Volume Density c_1[1] c_1[2] c_1[3] c_1[4] c_1[5] c_1[6] 
     150 9.3742484e-21   -797.63645   -797.63645   -12595.784    3731.8255    2.3994468   -9112.3376   -9112.3376   -19562.676   -444.82952 3.1743255e-08 3.2184834e-08 
     160 9.3742484e-21   -797.63645   -797.63645   -12595.784    3731.8255    2.3994468   -9112.3376   -9112.3376   -19562.676   -444.82952 3.1743255e-08 3.2184834e-08 
     170 9.3742484e-21   -797.63645   -797.63645   -12595.784    3731.8255    2.3994468   -9112.3376   -9112.3376   -19562.676   -444.82952 3.1743255e-08 3.2184834e-08 
     180 9.3742484e-21   -797.63645   -797.63645   -12595.784    3731.8255    2.3994468   -9112.3376   -9112.3376   -19562.676   -444.82952 3.1743255e-08 3.2184834e-08 
     190 9.3742484e-21   -797.63645   -797.63645   -12595.784    3731.8255    2.3994468   -9112.3376   -9112.3376   -19562.676   -444.82952 3.1743255e-08 3.2184834e-08 
     200 9.3742484e-21   -797.63645   -797.63645   -12595.784    3731.8255    2.3994468   -9112.3376   -9112.3376   -19562.676   -444.82952 3.1743255e-08 3.2184834e-08 
Loop time of 0.042886 on 1 procs for 50 steps with 192 atoms

Performance: 10073.213 ns/day, 0.002 hours/ns, 1165.881 timesteps/s
36.4% CPU use with 1 MPI tasks x 1 OpenMP threads

MPI task timing breakdown:
Section |  min time  |  avg time  |  max time  |%varavg| %total
---------------------------------------------------------------
Pair    | 0.006983   | 0.006983   | 0.006983   |   0.0 | 16.28
Neigh   | 0          | 0          | 0          |   0.0 |  0.00
Comm    | 0          | 0          | 0          |   0.0 |  0.00
Output  | 0.035903   | 0.035903   | 0.035903   |   0.0 | 83.72
Modify  | 0          | 0          | 0          |   0.0 |  0.00
Other   |            | 0          |            |       |  0.00

Nlocal:    192 ave 192 max 192 min
Histogram: 1 0 0 0 0 0 0 0 0 0
Nghost:    678 ave 678 max 678 min
Histogram: 1 0 0 0 0 0 0 0 0 0
Neighs:    0 ave 0 max 0 min
Histogram: 1 0 0 0 0 0 0 0 0 0
FullNghs:  6144 ave 6144 max 6144 min
Histogram: 1 0 0 0 0 0 0 0 0 0

Total # of neighbors = 6144
Ave neighs/atom = 32
Neighbor list builds = 0
Dangerous builds = 0

jump            in.lj.for loop
next            index

#change_box all xy final -0.1 z final 0.0 0.5 boundary p p f remap units box \
#change_box all xy scale -0.1 z boundary p p f remap units box
change_box all z delta 0 0.1 boundary p p s remap units box
  orthogonal box = (-1.42846 -1.42846 -4.31387) to (9.42846 9.42846 27.4523)
#change_box all xy final -0.1 z boundary p p f remap units box
#run 0



thermo 10
thermo_style custom step temp pe etotal press vol density c_1[1] c_1[2] c_1[3] c_1[4] c_1[5] c_1[6]
# NVT relaxation
fix 1 all nvt temp 300 300 1

unfix 1

fix 2 all print 100 "${st} ${sigmazz}" append thermo.out screen no title "# step stress "
#dump 103 all xyz 100 si_min_relaxation.xyz

run 50
Per MPI rank memory allocation (min/avg/max) = 3.097 | 3.097 | 3.097 Mbytes
Step Temp PotEng TotEng Press Volume Density c_1[1] c_1[2] c_1[3] c_1[4] c_1[5] c_1[6] 
     200 9.3742484e-21   -797.45239   -797.45239   -16069.873    3745.1103    2.3909353   -11691.841   -11691.841   -24825.939   -569.29992 3.1450115e-08 3.1882863e-08 
     210 9.3742484e-21   -797.45239   -797.45239   -16069.873    3745.1103    2.3909353   -11691.841   -11691.841   -24825.939   -569.29992 3.1450115e-08 3.1882863e-08 
     220 9.3742484e-21   -797.45239   -797.45239   -16069.873    3745.1103    2.3909353   -11691.841   -11691.841   -24825.939   -569.29992 3.1450115e-08 3.1882863e-08 
     230 9.3742484e-21   -797.45239   -797.45239   -16069.873    3745.1103    2.3909353   -11691.841   -11691.841   -24825.939   -569.29992 3.1450115e-08 3.1882863e-08 
     240 9.3742484e-21   -797.45239   -797.45239   -16069.873    3745.1103    2.3909353   -11691.841   -11691.841   -24825.939   -569.29992 3.1450115e-08 3.1882863e-08 
     250 9.3742484e-21   -797.45239   -797.45239   -16069.873    3745.1103    2.3909353   -11691.841   -11691.841   -24825.939   -569.29992 3.1450115e-08 3.1882863e-08 
Loop time of 0.0404599 on 1 procs for 50 steps with 192 atoms

Performance: 10677.246 ns/day, 0.002 hours/ns, 1235.792 timesteps/s
38.6% CPU use with 1 MPI tasks x 1 OpenMP threads

MPI task timing breakdown:
Section |  min time  |  avg time  |  max time  |%varavg| %total
---------------------------------------------------------------
Pair    | 0.0069821  | 0.0069821  | 0.0069821  |   0.0 | 17.26
Neigh   | 0          | 0          | 0          |   0.0 |  0.00
Comm    | 0          | 0          | 0          |   0.0 |  0.00
Output  | 0.033478   | 0.033478   | 0.033478   |   0.0 | 82.74
Modify  | 0          | 0          | 0          |   0.0 |  0.00
Other   |            | 0          |            |       |  0.00

Nlocal:    192 ave 192 max 192 min
Histogram: 1 0 0 0 0 0 0 0 0 0
Nghost:    678 ave 678 max 678 min
Histogram: 1 0 0 0 0 0 0 0 0 0
Neighs:    0 ave 0 max 0 min
Histogram: 1 0 0 0 0 0 0 0 0 0
FullNghs:  6144 ave 6144 max 6144 min
Histogram: 1 0 0 0 0 0 0 0 0 0

Total # of neighbors = 6144
Ave neighs/atom = 32
Neighbor list builds = 0
Dangerous builds = 0

jump            in.lj.for loop
next            index

#change_box all xy final -0.1 z final 0.0 0.5 boundary p p f remap units box \
#change_box all xy scale -0.1 z boundary p p f remap units box
change_box all z delta 0 0.1 boundary p p s remap units box
  orthogonal box = (-1.42846 -1.42846 -4.32023) to (9.42846 9.42846 27.5587)
#change_box all xy final -0.1 z boundary p p f remap units box
#run 0



thermo 10
thermo_style custom step temp pe etotal press vol density c_1[1] c_1[2] c_1[3] c_1[4] c_1[5] c_1[6]
# NVT relaxation
fix 1 all nvt temp 300 300 1

unfix 1

fix 2 all print 100 "${st} ${sigmazz}" append thermo.out screen no title "# step stress "
#dump 103 all xyz 100 si_min_relaxation.xyz

run 50
Per MPI rank memory allocation (min/avg/max) = 3.097 | 3.097 | 3.097 Mbytes
Step Temp PotEng TotEng Press Volume Density c_1[1] c_1[2] c_1[3] c_1[4] c_1[5] c_1[6] 
     250 9.3742484e-21   -797.22477   -797.22477   -19501.096    3758.4005    2.3824807   -14227.829   -14227.829   -30047.629   -691.81714 3.1179795e-08 3.1593773e-08 
     260 9.3742484e-21   -797.22477   -797.22477   -19501.096    3758.4005    2.3824807   -14227.829   -14227.829   -30047.629   -691.81714 3.1179795e-08 3.1593773e-08 
     270 9.3742484e-21   -797.22477   -797.22477   -19501.096    3758.4005    2.3824807   -14227.829   -14227.829   -30047.629   -691.81714 3.1179795e-08 3.1593773e-08 
     280 9.3742484e-21   -797.22477   -797.22477   -19501.096    3758.4005    2.3824807   -14227.829   -14227.829   -30047.629   -691.81714 3.1179795e-08 3.1593773e-08 
     290 9.3742484e-21   -797.22477   -797.22477   -19501.096    3758.4005    2.3824807   -14227.829   -14227.829   -30047.629   -691.81714 3.1179795e-08 3.1593773e-08 
     300 9.3742484e-21   -797.22477   -797.22477   -19501.096    3758.4005    2.3824807   -14227.829   -14227.829   -30047.629   -691.81714 3.1179795e-08 3.1593773e-08 
Loop time of 0.0438831 on 1 procs for 50 steps with 192 atoms

Performance: 9844.340 ns/day, 0.002 hours/ns, 1139.391 timesteps/s
35.6% CPU use with 1 MPI tasks x 1 OpenMP threads

MPI task timing breakdown:
Section |  min time  |  avg time  |  max time  |%varavg| %total
---------------------------------------------------------------
Pair    | 0.0069809  | 0.0069809  | 0.0069809  |   0.0 | 15.91
Neigh   | 0          | 0          | 0          |   0.0 |  0.00
Comm    | 0          | 0          | 0          |   0.0 |  0.00
Output  | 0.036902   | 0.036902   | 0.036902   |   0.0 | 84.09
Modify  | 0          | 0          | 0          |   0.0 |  0.00
Other   |            | 0          |            |       |  0.00

Nlocal:    192 ave 192 max 192 min
Histogram: 1 0 0 0 0 0 0 0 0 0
Nghost:    678 ave 678 max 678 min
Histogram: 1 0 0 0 0 0 0 0 0 0
Neighs:    0 ave 0 max 0 min
Histogram: 1 0 0 0 0 0 0 0 0 0
FullNghs:  6144 ave 6144 max 6144 min
Histogram: 1 0 0 0 0 0 0 0 0 0

Total # of neighbors = 6144
Ave neighs/atom = 32
Neighbor list builds = 0
Dangerous builds = 0

jump            in.lj.for loop
next            index

#change_box all xy final -0.1 z final 0.0 0.5 boundary p p f remap units box \
#change_box all xy scale -0.1 z boundary p p f remap units box
change_box all z delta 0 0.1 boundary p p s remap units box
  orthogonal box = (-1.42846 -1.42846 -4.32662) to (9.42846 9.42846 27.6651)
#change_box all xy final -0.1 z boundary p p f remap units box
#run 0



thermo 10
thermo_style custom step temp pe etotal press vol density c_1[1] c_1[2] c_1[3] c_1[4] c_1[5] c_1[6]
# NVT relaxation
fix 1 all nvt temp 300 300 1

unfix 1

fix 2 all print 100 "${st} ${sigmazz}" append thermo.out screen no title "# step stress "
#dump 103 all xyz 100 si_min_relaxation.xyz

run 50
Per MPI rank memory allocation (min/avg/max) = 3.097 | 3.097 | 3.097 Mbytes
Step Temp PotEng TotEng Press Volume Density c_1[1] c_1[2] c_1[3] c_1[4] c_1[5] c_1[6] 
     300 9.3742484e-21    -796.9539    -796.9539   -22889.944     3771.696    2.3740823   -16721.094   -16721.094   -35227.643    -812.4116 3.0872819e-08 3.1304287e-08 
     310 9.3742484e-21    -796.9539    -796.9539   -22889.944     3771.696    2.3740823   -16721.094   -16721.094   -35227.643    -812.4116 3.0872819e-08 3.1304287e-08 
     320 9.3742484e-21    -796.9539    -796.9539   -22889.944     3771.696    2.3740823   -16721.094   -16721.094   -35227.643    -812.4116 3.0872819e-08 3.1304287e-08 
     330 9.3742484e-21    -796.9539    -796.9539   -22889.944     3771.696    2.3740823   -16721.094   -16721.094   -35227.643    -812.4116 3.0872819e-08 3.1304287e-08 
     340 9.3742484e-21    -796.9539    -796.9539   -22889.944     3771.696    2.3740823   -16721.094   -16721.094   -35227.643    -812.4116 3.0872819e-08 3.1304287e-08 
     350 9.3742484e-21    -796.9539    -796.9539   -22889.944     3771.696    2.3740823   -16721.094   -16721.094   -35227.643    -812.4116 3.0872819e-08 3.1304287e-08 
Loop time of 0.0398939 on 1 procs for 50 steps with 192 atoms

Performance: 10828.733 ns/day, 0.002 hours/ns, 1253.326 timesteps/s
78.3% CPU use with 1 MPI tasks x 1 OpenMP threads

MPI task timing breakdown:
Section |  min time  |  avg time  |  max time  |%varavg| %total
---------------------------------------------------------------
Pair    | 0.0059857  | 0.0059857  | 0.0059857  |   0.0 | 15.00
Neigh   | 0          | 0          | 0          |   0.0 |  0.00
Comm    | 0          | 0          | 0          |   0.0 |  0.00
Output  | 0.033908   | 0.033908   | 0.033908   |   0.0 | 85.00
Modify  | 0          | 0          | 0          |   0.0 |  0.00
Other   |            | 0          |            |       |  0.00

Nlocal:    192 ave 192 max 192 min
Histogram: 1 0 0 0 0 0 0 0 0 0
Nghost:    678 ave 678 max 678 min
Histogram: 1 0 0 0 0 0 0 0 0 0
Neighs:    0 ave 0 max 0 min
Histogram: 1 0 0 0 0 0 0 0 0 0
FullNghs:  6144 ave 6144 max 6144 min
Histogram: 1 0 0 0 0 0 0 0 0 0

Total # of neighbors = 6144
Ave neighs/atom = 32
Neighbor list builds = 0
Dangerous builds = 0

jump            in.lj.for loop
next            index

#change_box all xy final -0.1 z final 0.0 0.5 boundary p p f remap units box \
#change_box all xy scale -0.1 z boundary p p f remap units box
change_box all z delta 0 0.1 boundary p p s remap units box
  orthogonal box = (-1.42846 -1.42846 -4.33303) to (9.42846 9.42846 27.7715)
#change_box all xy final -0.1 z boundary p p f remap units box
#run 0



thermo 10
thermo_style custom step temp pe etotal press vol density c_1[1] c_1[2] c_1[3] c_1[4] c_1[5] c_1[6]
# NVT relaxation
fix 1 all nvt temp 300 300 1

unfix 1

fix 2 all print 100 "${st} ${sigmazz}" append thermo.out screen no title "# step stress "
#dump 103 all xyz 100 si_min_relaxation.xyz

run 50
Per MPI rank memory allocation (min/avg/max) = 3.097 | 3.097 | 3.097 Mbytes
Step Temp PotEng TotEng Press Volume Density c_1[1] c_1[2] c_1[3] c_1[4] c_1[5] c_1[6] 
     350 9.3742484e-21   -796.64009   -796.64009   -26236.907    3784.9968    2.3657396   -19172.417   -19172.417   -40365.888   -931.11327 3.0584616e-08 3.1022337e-08 
     360 9.3742484e-21   -796.64009   -796.64009   -26236.907    3784.9968    2.3657396   -19172.417   -19172.417   -40365.888   -931.11327 3.0584616e-08 3.1022337e-08 
     370 9.3742484e-21   -796.64009   -796.64009   -26236.907    3784.9968    2.3657396   -19172.417   -19172.417   -40365.888   -931.11327 3.0584616e-08 3.1022337e-08 
     380 9.3742484e-21   -796.64009   -796.64009   -26236.907    3784.9968    2.3657396   -19172.417   -19172.417   -40365.888   -931.11327 3.0584616e-08 3.1022337e-08 
     390 9.3742484e-21   -796.64009   -796.64009   -26236.907    3784.9968    2.3657396   -19172.417   -19172.417   -40365.888   -931.11327 3.0584616e-08 3.1022337e-08 
     400 9.3742484e-21   -796.64009   -796.64009   -26236.907    3784.9968    2.3657396   -19172.417   -19172.417   -40365.888   -931.11327 3.0584616e-08 3.1022337e-08 
Loop time of 0.046875 on 1 procs for 50 steps with 192 atoms

Performance: 9216.000 ns/day, 0.003 hours/ns, 1066.667 timesteps/s
0.0% CPU use with 1 MPI tasks x 1 OpenMP threads

MPI task timing breakdown:
Section |  min time  |  avg time  |  max time  |%varavg| %total
---------------------------------------------------------------
Pair    | 0.0069809  | 0.0069809  | 0.0069809  |   0.0 | 14.89
Neigh   | 0          | 0          | 0          |   0.0 |  0.00
Comm    | 0.00099802 | 0.00099802 | 0.00099802 |   0.0 |  2.13
Output  | 0.038896   | 0.038896   | 0.038896   |   0.0 | 82.98
Modify  | 0          | 0          | 0          |   0.0 |  0.00
Other   |            | 0          |            |       |  0.00

Nlocal:    192 ave 192 max 192 min
Histogram: 1 0 0 0 0 0 0 0 0 0
Nghost:    678 ave 678 max 678 min
Histogram: 1 0 0 0 0 0 0 0 0 0
Neighs:    0 ave 0 max 0 min
Histogram: 1 0 0 0 0 0 0 0 0 0
FullNghs:  6144 ave 6144 max 6144 min
Histogram: 1 0 0 0 0 0 0 0 0 0

Total # of neighbors = 6144
Ave neighs/atom = 32
Neighbor list builds = 0
Dangerous builds = 0

jump            in.lj.for loop
next            index

#change_box all xy final -0.1 z final 0.0 0.5 boundary p p f remap units box \
#change_box all xy scale -0.1 z boundary p p f remap units box
change_box all z delta 0 0.1 boundary p p s remap units box
  orthogonal box = (-1.42846 -1.42846 -4.33946) to (9.42846 9.42846 27.8779)
#change_box all xy final -0.1 z boundary p p f remap units box
#run 0



thermo 10
thermo_style custom step temp pe etotal press vol density c_1[1] c_1[2] c_1[3] c_1[4] c_1[5] c_1[6]
# NVT relaxation
fix 1 all nvt temp 300 300 1

unfix 1

fix 2 all print 100 "${st} ${sigmazz}" append thermo.out screen no title "# step stress "
#dump 103 all xyz 100 si_min_relaxation.xyz

run 50
Per MPI rank memory allocation (min/avg/max) = 3.097 | 3.097 | 3.097 Mbytes
Step Temp PotEng TotEng Press Volume Density c_1[1] c_1[2] c_1[3] c_1[4] c_1[5] c_1[6] 
     400 9.3742484e-21   -796.28366   -796.28366    -29542.47    3798.3029     2.357452   -21582.563   -21582.563   -45462.284   -1047.9517 3.0320455e-08 3.0726779e-08 
     410 9.3742484e-21   -796.28366   -796.28366    -29542.47    3798.3029     2.357452   -21582.563   -21582.563   -45462.284   -1047.9517 3.0320455e-08 3.0726779e-08 
     420 9.3742484e-21   -796.28366   -796.28366    -29542.47    3798.3029     2.357452   -21582.563   -21582.563   -45462.284   -1047.9517 3.0320455e-08 3.0726779e-08 
     430 9.3742484e-21   -796.28366   -796.28366    -29542.47    3798.3029     2.357452   -21582.563   -21582.563   -45462.284   -1047.9517 3.0320455e-08 3.0726779e-08 
     440 9.3742484e-21   -796.28366   -796.28366    -29542.47    3798.3029     2.357452   -21582.563   -21582.563   -45462.284   -1047.9517 3.0320455e-08 3.0726779e-08 
     450 9.3742484e-21   -796.28366   -796.28366    -29542.47    3798.3029     2.357452   -21582.563   -21582.563   -45462.284   -1047.9517 3.0320455e-08 3.0726779e-08 
Loop time of 0.0398929 on 1 procs for 50 steps with 192 atoms

Performance: 10828.991 ns/day, 0.002 hours/ns, 1253.355 timesteps/s
0.0% CPU use with 1 MPI tasks x 1 OpenMP threads

MPI task timing breakdown:
Section |  min time  |  avg time  |  max time  |%varavg| %total
---------------------------------------------------------------
Pair    | 0.007978   | 0.007978   | 0.007978   |   0.0 | 20.00
Neigh   | 0          | 0          | 0          |   0.0 |  0.00
Comm    | 0.00099802 | 0.00099802 | 0.00099802 |   0.0 |  2.50
Output  | 0.030917   | 0.030917   | 0.030917   |   0.0 | 77.50
Modify  | 0          | 0          | 0          |   0.0 |  0.00
Other   |            | 0          |            |       |  0.00

Nlocal:    192 ave 192 max 192 min
Histogram: 1 0 0 0 0 0 0 0 0 0
Nghost:    678 ave 678 max 678 min
Histogram: 1 0 0 0 0 0 0 0 0 0
Neighs:    0 ave 0 max 0 min
Histogram: 1 0 0 0 0 0 0 0 0 0
FullNghs:  6144 ave 6144 max 6144 min
Histogram: 1 0 0 0 0 0 0 0 0 0

Total # of neighbors = 6144
Ave neighs/atom = 32
Neighbor list builds = 0
Dangerous builds = 0

jump            in.lj.for loop
next            index

#change_box all xy final -0.1 z final 0.0 0.5 boundary p p f remap units box \
#change_box all xy scale -0.1 z boundary p p f remap units box
change_box all z delta 0 0.1 boundary p p s remap units box
  orthogonal box = (-1.42846 -1.42846 -4.34591) to (9.42846 9.42846 27.9844)
#change_box all xy final -0.1 z boundary p p f remap units box
#run 0



thermo 10
thermo_style custom step temp pe etotal press vol density c_1[1] c_1[2] c_1[3] c_1[4] c_1[5] c_1[6]
# NVT relaxation
fix 1 all nvt temp 300 300 1

unfix 1

fix 2 all print 100 "${st} ${sigmazz}" append thermo.out screen no title "# step stress "
#dump 103 all xyz 100 si_min_relaxation.xyz

run 50
Per MPI rank memory allocation (min/avg/max) = 3.097 | 3.097 | 3.097 Mbytes
Step Temp PotEng TotEng Press Volume Density c_1[1] c_1[2] c_1[3] c_1[4] c_1[5] c_1[6] 
     450 9.3742484e-21   -795.88491   -795.88491   -32807.114    3811.6144    2.3492189    -23952.29    -23952.29   -50516.762    -1162.956 3.003824e-08 3.0427231e-08 
     460 9.3742484e-21   -795.88491   -795.88491   -32807.114    3811.6144    2.3492189    -23952.29    -23952.29   -50516.762    -1162.956 3.003824e-08 3.0427231e-08 
     470 9.3742484e-21   -795.88491   -795.88491   -32807.114    3811.6144    2.3492189    -23952.29    -23952.29   -50516.762    -1162.956 3.003824e-08 3.0427231e-08 
     480 9.3742484e-21   -795.88491   -795.88491   -32807.114    3811.6144    2.3492189    -23952.29    -23952.29   -50516.762    -1162.956 3.003824e-08 3.0427231e-08 
     490 9.3742484e-21   -795.88491   -795.88491   -32807.114    3811.6144    2.3492189    -23952.29    -23952.29   -50516.762    -1162.956 3.003824e-08 3.0427231e-08 
     500 9.3742484e-21   -795.88491   -795.88491   -32807.114    3811.6144    2.3492189    -23952.29    -23952.29   -50516.762    -1162.956 3.003824e-08 3.0427231e-08 
Loop time of 0.042886 on 1 procs for 50 steps with 192 atoms

Performance: 10073.213 ns/day, 0.002 hours/ns, 1165.881 timesteps/s
36.4% CPU use with 1 MPI tasks x 1 OpenMP threads

MPI task timing breakdown:
Section |  min time  |  avg time  |  max time  |%varavg| %total
---------------------------------------------------------------
Pair    | 0.0059831  | 0.0059831  | 0.0059831  |   0.0 | 13.95
Neigh   | 0          | 0          | 0          |   0.0 |  0.00
Comm    | 0          | 0          | 0          |   0.0 |  0.00
Output  | 0.036903   | 0.036903   | 0.036903   |   0.0 | 86.05
Modify  | 0          | 0          | 0          |   0.0 |  0.00
Other   |            | 0          |            |       |  0.00

Nlocal:    192 ave 192 max 192 min
Histogram: 1 0 0 0 0 0 0 0 0 0
Nghost:    678 ave 678 max 678 min
Histogram: 1 0 0 0 0 0 0 0 0 0
Neighs:    0 ave 0 max 0 min
Histogram: 1 0 0 0 0 0 0 0 0 0
FullNghs:  6144 ave 6144 max 6144 min
Histogram: 1 0 0 0 0 0 0 0 0 0

Total # of neighbors = 6144
Ave neighs/atom = 32
Neighbor list builds = 0
Dangerous builds = 0

jump            in.lj.for loop
next            index

#change_box all xy final -0.1 z final 0.0 0.5 boundary p p f remap units box \
#change_box all xy scale -0.1 z boundary p p f remap units box
change_box all z delta 0 0.1 boundary p p s remap units box
  orthogonal box = (-1.42846 -1.42846 -4.35239) to (9.42846 9.42846 28.0908)
#change_box all xy final -0.1 z boundary p p f remap units box
#run 0



thermo 10
thermo_style custom step temp pe etotal press vol density c_1[1] c_1[2] c_1[3] c_1[4] c_1[5] c_1[6]
# NVT relaxation
fix 1 all nvt temp 300 300 1

unfix 1

fix 2 all print 100 "${st} ${sigmazz}" append thermo.out screen no title "# step stress "
#dump 103 all xyz 100 si_min_relaxation.xyz

run 50
Per MPI rank memory allocation (min/avg/max) = 3.097 | 3.097 | 3.097 Mbytes
Step Temp PotEng TotEng Press Volume Density c_1[1] c_1[2] c_1[3] c_1[4] c_1[5] c_1[6] 
     500 9.3742484e-21   -795.44417   -795.44417   -36031.315    3824.9311      2.34104    -26282.34    -26282.34   -55529.266   -1276.1549 2.9760938e-08 3.0201288e-08 
     510 9.3742484e-21   -795.44417   -795.44417   -36031.315    3824.9311      2.34104    -26282.34    -26282.34   -55529.266   -1276.1549 2.9760938e-08 3.0201288e-08 
     520 9.3742484e-21   -795.44417   -795.44417   -36031.315    3824.9311      2.34104    -26282.34    -26282.34   -55529.266   -1276.1549 2.9760938e-08 3.0201288e-08 
     530 9.3742484e-21   -795.44417   -795.44417   -36031.315    3824.9311      2.34104    -26282.34    -26282.34   -55529.266   -1276.1549 2.9760938e-08 3.0201288e-08 
     540 9.3742484e-21   -795.44417   -795.44417   -36031.315    3824.9311      2.34104    -26282.34    -26282.34   -55529.266   -1276.1549 2.9760938e-08 3.0201288e-08 
     550 9.3742484e-21   -795.44417   -795.44417   -36031.315    3824.9311      2.34104    -26282.34    -26282.34   -55529.266   -1276.1549 2.9760938e-08 3.0201288e-08 
Loop time of 0.042886 on 1 procs for 50 steps with 192 atoms

Performance: 10073.213 ns/day, 0.002 hours/ns, 1165.881 timesteps/s
36.4% CPU use with 1 MPI tasks x 1 OpenMP threads

MPI task timing breakdown:
Section |  min time  |  avg time  |  max time  |%varavg| %total
---------------------------------------------------------------
Pair    | 0.0059829  | 0.0059829  | 0.0059829  |   0.0 | 13.95
Neigh   | 0          | 0          | 0          |   0.0 |  0.00
Comm    | 0.00099802 | 0.00099802 | 0.00099802 |   0.0 |  2.33
Output  | 0.035905   | 0.035905   | 0.035905   |   0.0 | 83.72
Modify  | 0          | 0          | 0          |   0.0 |  0.00
Other   |            | 0          |            |       |  0.00

Nlocal:    192 ave 192 max 192 min
Histogram: 1 0 0 0 0 0 0 0 0 0
Nghost:    678 ave 678 max 678 min
Histogram: 1 0 0 0 0 0 0 0 0 0
Neighs:    0 ave 0 max 0 min
Histogram: 1 0 0 0 0 0 0 0 0 0
FullNghs:  6144 ave 6144 max 6144 min
Histogram: 1 0 0 0 0 0 0 0 0 0

Total # of neighbors = 6144
Ave neighs/atom = 32
Neighbor list builds = 0
Dangerous builds = 0

jump            in.lj.for loop
next            index

#change_box all xy final -0.1 z final 0.0 0.5 boundary p p f remap units box \
#change_box all xy scale -0.1 z boundary p p f remap units box
change_box all z delta 0 0.1 boundary p p s remap units box
  orthogonal box = (-1.42846 -1.42846 -4.35889) to (9.42846 9.42846 28.1973)
#change_box all xy final -0.1 z boundary p p f remap units box
#run 0



thermo 10
thermo_style custom step temp pe etotal press vol density c_1[1] c_1[2] c_1[3] c_1[4] c_1[5] c_1[6]
# NVT relaxation
fix 1 all nvt temp 300 300 1

unfix 1

fix 2 all print 100 "${st} ${sigmazz}" append thermo.out screen no title "# step stress "
#dump 103 all xyz 100 si_min_relaxation.xyz

run 50
Per MPI rank memory allocation (min/avg/max) = 3.097 | 3.097 | 3.097 Mbytes
Step Temp PotEng TotEng Press Volume Density c_1[1] c_1[2] c_1[3] c_1[4] c_1[5] c_1[6] 
     550 9.3742484e-21   -794.96175   -794.96175   -39215.547    3838.2532    2.3329145   -28573.445   -28573.445   -60499.751   -1387.5767 2.9468871e-08 2.9890018e-08 
     560 9.3742484e-21   -794.96175   -794.96175   -39215.547    3838.2532    2.3329145   -28573.445   -28573.445   -60499.751   -1387.5767 2.9468871e-08 2.9890018e-08 
     570 9.3742484e-21   -794.96175   -794.96175   -39215.547    3838.2532    2.3329145   -28573.445   -28573.445   -60499.751   -1387.5767 2.9468871e-08 2.9890018e-08 
     580 9.3742484e-21   -794.96175   -794.96175   -39215.547    3838.2532    2.3329145   -28573.445   -28573.445   -60499.751   -1387.5767 2.9468871e-08 2.9890018e-08 
     590 9.3742484e-21   -794.96175   -794.96175   -39215.547    3838.2532    2.3329145   -28573.445   -28573.445   -60499.751   -1387.5767 2.9468871e-08 2.9890018e-08 
     600 9.3742484e-21   -794.96175   -794.96175   -39215.547    3838.2532    2.3329145   -28573.445   -28573.445   -60499.751   -1387.5767 2.9468871e-08 2.9890018e-08 
Loop time of 0.041888 on 1 procs for 50 steps with 192 atoms

Performance: 10313.217 ns/day, 0.002 hours/ns, 1193.659 timesteps/s
0.0% CPU use with 1 MPI tasks x 1 OpenMP threads

MPI task timing breakdown:
Section |  min time  |  avg time  |  max time  |%varavg| %total
---------------------------------------------------------------
Pair    | 0.005985   | 0.005985   | 0.005985   |   0.0 | 14.29
Neigh   | 0          | 0          | 0          |   0.0 |  0.00
Comm    | 0          | 0          | 0          |   0.0 |  0.00
Output  | 0.035903   | 0.035903   | 0.035903   |   0.0 | 85.71
Modify  | 0          | 0          | 0          |   0.0 |  0.00
Other   |            | 0          |            |       |  0.00

Nlocal:    192 ave 192 max 192 min
Histogram: 1 0 0 0 0 0 0 0 0 0
Nghost:    678 ave 678 max 678 min
Histogram: 1 0 0 0 0 0 0 0 0 0
Neighs:    0 ave 0 max 0 min
Histogram: 1 0 0 0 0 0 0 0 0 0
FullNghs:  6144 ave 6144 max 6144 min
Histogram: 1 0 0 0 0 0 0 0 0 0

Total # of neighbors = 6144
Ave neighs/atom = 32
Neighbor list builds = 0
Dangerous builds = 0

jump            in.lj.for loop
next            index

#change_box all xy final -0.1 z final 0.0 0.5 boundary p p f remap units box \
#change_box all xy scale -0.1 z boundary p p f remap units box
change_box all z delta 0 0.1 boundary p p s remap units box
  orthogonal box = (-1.42846 -1.42846 -4.36541) to (9.42846 9.42846 28.3039)
#change_box all xy final -0.1 z boundary p p f remap units box
#run 0



thermo 10
thermo_style custom step temp pe etotal press vol density c_1[1] c_1[2] c_1[3] c_1[4] c_1[5] c_1[6]
# NVT relaxation
fix 1 all nvt temp 300 300 1

unfix 1

fix 2 all print 100 "${st} ${sigmazz}" append thermo.out screen no title "# step stress "
#dump 103 all xyz 100 si_min_relaxation.xyz

run 50
Per MPI rank memory allocation (min/avg/max) = 3.097 | 3.097 | 3.097 Mbytes
Step Temp PotEng TotEng Press Volume Density c_1[1] c_1[2] c_1[3] c_1[4] c_1[5] c_1[6] 
     600 9.3742484e-21   -794.43797   -794.43797   -42360.277    3851.5807     2.324842   -30826.324   -30826.324   -65428.184   -1497.2491 2.9204447e-08 2.9617905e-08 
     610 9.3742484e-21   -794.43797   -794.43797   -42360.277    3851.5807     2.324842   -30826.324   -30826.324   -65428.184   -1497.2491 2.9204447e-08 2.9617905e-08 
     620 9.3742484e-21   -794.43797   -794.43797   -42360.277    3851.5807     2.324842   -30826.324   -30826.324   -65428.184   -1497.2491 2.9204447e-08 2.9617905e-08 
     630 9.3742484e-21   -794.43797   -794.43797   -42360.277    3851.5807     2.324842   -30826.324   -30826.324   -65428.184   -1497.2491 2.9204447e-08 2.9617905e-08 
     640 9.3742484e-21   -794.43797   -794.43797   -42360.277    3851.5807     2.324842   -30826.324   -30826.324   -65428.184   -1497.2491 2.9204447e-08 2.9617905e-08 
     650 9.3742484e-21   -794.43797   -794.43797   -42360.277    3851.5807     2.324842   -30826.324   -30826.324   -65428.184   -1497.2491 2.9204447e-08 2.9617905e-08 
Loop time of 0.0418909 on 1 procs for 50 steps with 192 atoms

Performance: 10312.512 ns/day, 0.002 hours/ns, 1193.578 timesteps/s
37.3% CPU use with 1 MPI tasks x 1 OpenMP threads

MPI task timing breakdown:
Section |  min time  |  avg time  |  max time  |%varavg| %total
---------------------------------------------------------------
Pair    | 0.0079772  | 0.0079772  | 0.0079772  |   0.0 | 19.04
Neigh   | 0          | 0          | 0          |   0.0 |  0.00
Comm    | 0          | 0          | 0          |   0.0 |  0.00
Output  | 0.033914   | 0.033914   | 0.033914   |   0.0 | 80.96
Modify  | 0          | 0          | 0          |   0.0 |  0.00
Other   |            | 0          |            |       |  0.00

Nlocal:    192 ave 192 max 192 min
Histogram: 1 0 0 0 0 0 0 0 0 0
Nghost:    678 ave 678 max 678 min
Histogram: 1 0 0 0 0 0 0 0 0 0
Neighs:    0 ave 0 max 0 min
Histogram: 1 0 0 0 0 0 0 0 0 0
FullNghs:  6144 ave 6144 max 6144 min
Histogram: 1 0 0 0 0 0 0 0 0 0

Total # of neighbors = 6144
Ave neighs/atom = 32
Neighbor list builds = 0
Dangerous builds = 0

jump            in.lj.for loop
next            index

#change_box all xy final -0.1 z final 0.0 0.5 boundary p p f remap units box \
#change_box all xy scale -0.1 z boundary p p f remap units box
change_box all z delta 0 0.1 boundary p p s remap units box
  orthogonal box = (-1.42846 -1.42846 -4.37195) to (9.42846 9.42846 28.4104)
#change_box all xy final -0.1 z boundary p p f remap units box
#run 0



thermo 10
thermo_style custom step temp pe etotal press vol density c_1[1] c_1[2] c_1[3] c_1[4] c_1[5] c_1[6]
# NVT relaxation
fix 1 all nvt temp 300 300 1

unfix 1

fix 2 all print 100 "${st} ${sigmazz}" append thermo.out screen no title "# step stress "
#dump 103 all xyz 100 si_min_relaxation.xyz

run 50
Per MPI rank memory allocation (min/avg/max) = 3.097 | 3.097 | 3.097 Mbytes
Step Temp PotEng TotEng Press Volume Density c_1[1] c_1[2] c_1[3] c_1[4] c_1[5] c_1[6] 
     650 9.3742484e-21   -793.87313   -793.87313   -45465.972    3864.9134    2.3168221   -33041.687   -33041.687   -70314.542   -1605.1996 2.8959514e-08 2.9342609e-08 
     660 9.3742484e-21   -793.87313   -793.87313   -45465.972    3864.9134    2.3168221   -33041.687   -33041.687   -70314.542   -1605.1996 2.8959514e-08 2.9342609e-08 
     670 9.3742484e-21   -793.87313   -793.87313   -45465.972    3864.9134    2.3168221   -33041.687   -33041.687   -70314.542   -1605.1996 2.8959514e-08 2.9342609e-08 
     680 9.3742484e-21   -793.87313   -793.87313   -45465.972    3864.9134    2.3168221   -33041.687   -33041.687   -70314.542   -1605.1996 2.8959514e-08 2.9342609e-08 
     690 9.3742484e-21   -793.87313   -793.87313   -45465.972    3864.9134    2.3168221   -33041.687   -33041.687   -70314.542   -1605.1996 2.8959514e-08 2.9342609e-08 
     700 9.3742484e-21   -793.87313   -793.87313   -45465.972    3864.9134    2.3168221   -33041.687   -33041.687   -70314.542   -1605.1996 2.8959514e-08 2.9342609e-08 
Loop time of 0.0398932 on 1 procs for 50 steps with 192 atoms

Performance: 10828.927 ns/day, 0.002 hours/ns, 1253.348 timesteps/s
39.2% CPU use with 1 MPI tasks x 1 OpenMP threads

MPI task timing breakdown:
Section |  min time  |  avg time  |  max time  |%varavg| %total
---------------------------------------------------------------
Pair    | 0.0059843  | 0.0059843  | 0.0059843  |   0.0 | 15.00
Neigh   | 0          | 0          | 0          |   0.0 |  0.00
Comm    | 0          | 0          | 0          |   0.0 |  0.00
Output  | 0.033909   | 0.033909   | 0.033909   |   0.0 | 85.00
Modify  | 0          | 0          | 0          |   0.0 |  0.00
Other   |            | 0          |            |       |  0.00

Nlocal:    192 ave 192 max 192 min
Histogram: 1 0 0 0 0 0 0 0 0 0
Nghost:    678 ave 678 max 678 min
Histogram: 1 0 0 0 0 0 0 0 0 0
Neighs:    0 ave 0 max 0 min
Histogram: 1 0 0 0 0 0 0 0 0 0
FullNghs:  6144 ave 6144 max 6144 min
Histogram: 1 0 0 0 0 0 0 0 0 0

Total # of neighbors = 6144
Ave neighs/atom = 32
Neighbor list builds = 0
Dangerous builds = 0

jump            in.lj.for loop
next            index

#change_box all xy final -0.1 z final 0.0 0.5 boundary p p f remap units box \
#change_box all xy scale -0.1 z boundary p p f remap units box
change_box all z delta 0 0.1 boundary p p s remap units box
  orthogonal box = (-1.42846 -1.42846 -4.37852) to (9.42846 9.42846 28.517)
#change_box all xy final -0.1 z boundary p p f remap units box
#run 0



thermo 10
thermo_style custom step temp pe etotal press vol density c_1[1] c_1[2] c_1[3] c_1[4] c_1[5] c_1[6]
# NVT relaxation
fix 1 all nvt temp 300 300 1

unfix 1

fix 2 all print 100 "${st} ${sigmazz}" append thermo.out screen no title "# step stress "
#dump 103 all xyz 100 si_min_relaxation.xyz

run 50
Per MPI rank memory allocation (min/avg/max) = 3.097 | 3.097 | 3.097 Mbytes
Step Temp PotEng TotEng Press Volume Density c_1[1] c_1[2] c_1[3] c_1[4] c_1[5] c_1[6] 
     700 9.3742484e-21   -793.26757   -793.26757   -48533.091    3878.2515     2.308854   -35220.229   -35220.229   -75158.815   -1711.4553 2.8666738e-08 2.9082725e-08 
     710 9.3742484e-21   -793.26757   -793.26757   -48533.091    3878.2515     2.308854   -35220.229   -35220.229   -75158.815   -1711.4553 2.8666738e-08 2.9082725e-08 
     720 9.3742484e-21   -793.26757   -793.26757   -48533.091    3878.2515     2.308854   -35220.229   -35220.229   -75158.815   -1711.4553 2.8666738e-08 2.9082725e-08 
     730 9.3742484e-21   -793.26757   -793.26757   -48533.091    3878.2515     2.308854   -35220.229   -35220.229   -75158.815   -1711.4553 2.8666738e-08 2.9082725e-08 
     740 9.3742484e-21   -793.26757   -793.26757   -48533.091    3878.2515     2.308854   -35220.229   -35220.229   -75158.815   -1711.4553 2.8666738e-08 2.9082725e-08 
     750 9.3742484e-21   -793.26757   -793.26757   -48533.091    3878.2515     2.308854   -35220.229   -35220.229   -75158.815   -1711.4553 2.8666738e-08 2.9082725e-08 
Loop time of 0.041888 on 1 procs for 50 steps with 192 atoms

Performance: 10313.217 ns/day, 0.002 hours/ns, 1193.659 timesteps/s
0.0% CPU use with 1 MPI tasks x 1 OpenMP threads

MPI task timing breakdown:
Section |  min time  |  avg time  |  max time  |%varavg| %total
---------------------------------------------------------------
Pair    | 0.0059812  | 0.0059812  | 0.0059812  |   0.0 | 14.28
Neigh   | 0          | 0          | 0          |   0.0 |  0.00
Comm    | 0          | 0          | 0          |   0.0 |  0.00
Output  | 0.035907   | 0.035907   | 0.035907   |   0.0 | 85.72
Modify  | 0          | 0          | 0          |   0.0 |  0.00
Other   |            | 0          |            |       |  0.00

Nlocal:    192 ave 192 max 192 min
Histogram: 1 0 0 0 0 0 0 0 0 0
Nghost:    678 ave 678 max 678 min
Histogram: 1 0 0 0 0 0 0 0 0 0
Neighs:    0 ave 0 max 0 min
Histogram: 1 0 0 0 0 0 0 0 0 0
FullNghs:  6144 ave 6144 max 6144 min
Histogram: 1 0 0 0 0 0 0 0 0 0

Total # of neighbors = 6144
Ave neighs/atom = 32
Neighbor list builds = 0
Dangerous builds = 0

jump            in.lj.for loop
next            index

#change_box all xy final -0.1 z final 0.0 0.5 boundary p p f remap units box \
#change_box all xy scale -0.1 z boundary p p f remap units box
change_box all z delta 0 0.1 boundary p p s remap units box
  orthogonal box = (-1.42846 -1.42846 -4.38511) to (9.42846 9.42846 28.6236)
#change_box all xy final -0.1 z boundary p p f remap units box
#run 0



thermo 10
thermo_style custom step temp pe etotal press vol density c_1[1] c_1[2] c_1[3] c_1[4] c_1[5] c_1[6]
# NVT relaxation
fix 1 all nvt temp 300 300 1

unfix 1

fix 2 all print 100 "${st} ${sigmazz}" append thermo.out screen no title "# step stress "
#dump 103 all xyz 100 si_min_relaxation.xyz

run 50
Per MPI rank memory allocation (min/avg/max) = 3.097 | 3.097 | 3.097 Mbytes
Step Temp PotEng TotEng Press Volume Density c_1[1] c_1[2] c_1[3] c_1[4] c_1[5] c_1[6] 
     750 9.3742484e-21    -792.6216    -792.6216   -51562.092    3891.5949    2.3009375   -37362.637   -37362.637   -79961.004   -1816.0427 2.8414992e-08 2.8766219e-08 
     760 9.3742484e-21    -792.6216    -792.6216   -51562.092    3891.5949    2.3009375   -37362.637   -37362.637   -79961.004   -1816.0427 2.8414992e-08 2.8766219e-08 
     770 9.3742484e-21    -792.6216    -792.6216   -51562.092    3891.5949    2.3009375   -37362.637   -37362.637   -79961.004   -1816.0427 2.8414992e-08 2.8766219e-08 
     780 9.3742484e-21    -792.6216    -792.6216   -51562.092    3891.5949    2.3009375   -37362.637   -37362.637   -79961.004   -1816.0427 2.8414992e-08 2.8766219e-08 
     790 9.3742484e-21    -792.6216    -792.6216   -51562.092    3891.5949    2.3009375   -37362.637   -37362.637   -79961.004   -1816.0427 2.8414992e-08 2.8766219e-08 
     800 9.3742484e-21    -792.6216    -792.6216   -51562.092    3891.5949    2.3009375   -37362.637   -37362.637   -79961.004   -1816.0427 2.8414992e-08 2.8766219e-08 
Loop time of 0.0408919 on 1 procs for 50 steps with 192 atoms

Performance: 10564.443 ns/day, 0.002 hours/ns, 1222.736 timesteps/s
0.0% CPU use with 1 MPI tasks x 1 OpenMP threads

MPI task timing breakdown:
Section |  min time  |  avg time  |  max time  |%varavg| %total
---------------------------------------------------------------
Pair    | 0.0059798  | 0.0059798  | 0.0059798  |   0.0 | 14.62
Neigh   | 0          | 0          | 0          |   0.0 |  0.00
Comm    | 0.00099683 | 0.00099683 | 0.00099683 |   0.0 |  2.44
Output  | 0.033915   | 0.033915   | 0.033915   |   0.0 | 82.94
Modify  | 0          | 0          | 0          |   0.0 |  0.00
Other   |            | 0          |            |       |  0.00

Nlocal:    192 ave 192 max 192 min
Histogram: 1 0 0 0 0 0 0 0 0 0
Nghost:    678 ave 678 max 678 min
Histogram: 1 0 0 0 0 0 0 0 0 0
Neighs:    0 ave 0 max 0 min
Histogram: 1 0 0 0 0 0 0 0 0 0
FullNghs:  6144 ave 6144 max 6144 min
Histogram: 1 0 0 0 0 0 0 0 0 0

Total # of neighbors = 6144
Ave neighs/atom = 32
Neighbor list builds = 0
Dangerous builds = 0

jump            in.lj.for loop
next            index

#change_box all xy final -0.1 z final 0.0 0.5 boundary p p f remap units box \
#change_box all xy scale -0.1 z boundary p p f remap units box
change_box all z delta 0 0.1 boundary p p s remap units box
  orthogonal box = (-1.42846 -1.42846 -4.39172) to (9.42846 9.42846 28.7302)
#change_box all xy final -0.1 z boundary p p f remap units box
#run 0



thermo 10
thermo_style custom step temp pe etotal press vol density c_1[1] c_1[2] c_1[3] c_1[4] c_1[5] c_1[6]
# NVT relaxation
fix 1 all nvt temp 300 300 1

unfix 1

fix 2 all print 100 "${st} ${sigmazz}" append thermo.out screen no title "# step stress "
#dump 103 all xyz 100 si_min_relaxation.xyz

run 50
Per MPI rank memory allocation (min/avg/max) = 3.097 | 3.097 | 3.097 Mbytes
Step Temp PotEng TotEng Press Volume Density c_1[1] c_1[2] c_1[3] c_1[4] c_1[5] c_1[6] 
     800 9.3742484e-21   -791.93553   -791.93553   -54553.429    3904.9437    2.2930719   -39469.584   -39469.584   -84721.119    -1918.988 2.8126329e-08 2.849691e-08 
     810 9.3742484e-21   -791.93553   -791.93553   -54553.429    3904.9437    2.2930719   -39469.584   -39469.584   -84721.119    -1918.988 2.8126329e-08 2.849691e-08 
     820 9.3742484e-21   -791.93553   -791.93553   -54553.429    3904.9437    2.2930719   -39469.584   -39469.584   -84721.119    -1918.988 2.8126329e-08 2.849691e-08 
     830 9.3742484e-21   -791.93553   -791.93553   -54553.429    3904.9437    2.2930719   -39469.584   -39469.584   -84721.119    -1918.988 2.8126329e-08 2.849691e-08 
     840 9.3742484e-21   -791.93553   -791.93553   -54553.429    3904.9437    2.2930719   -39469.584   -39469.584   -84721.119    -1918.988 2.8126329e-08 2.849691e-08 
     850 9.3742484e-21   -791.93553   -791.93553   -54553.429    3904.9437    2.2930719   -39469.584   -39469.584   -84721.119    -1918.988 2.8126329e-08 2.849691e-08 
Loop time of 0.04089 on 1 procs for 50 steps with 192 atoms

Performance: 10564.936 ns/day, 0.002 hours/ns, 1222.794 timesteps/s
38.2% CPU use with 1 MPI tasks x 1 OpenMP threads

MPI task timing breakdown:
Section |  min time  |  avg time  |  max time  |%varavg| %total
---------------------------------------------------------------
Pair    | 0.0059876  | 0.0059876  | 0.0059876  |   0.0 | 14.64
Neigh   | 0          | 0          | 0          |   0.0 |  0.00
Comm    | 0          | 0          | 0          |   0.0 |  0.00
Output  | 0.034902   | 0.034902   | 0.034902   |   0.0 | 85.36
Modify  | 0          | 0          | 0          |   0.0 |  0.00
Other   |            | 0          |            |       |  0.00

Nlocal:    192 ave 192 max 192 min
Histogram: 1 0 0 0 0 0 0 0 0 0
Nghost:    678 ave 678 max 678 min
Histogram: 1 0 0 0 0 0 0 0 0 0
Neighs:    0 ave 0 max 0 min
Histogram: 1 0 0 0 0 0 0 0 0 0
FullNghs:  6144 ave 6144 max 6144 min
Histogram: 1 0 0 0 0 0 0 0 0 0

Total # of neighbors = 6144
Ave neighs/atom = 32
Neighbor list builds = 0
Dangerous builds = 0

jump            in.lj.for loop
next            index

#change_box all xy final -0.1 z final 0.0 0.5 boundary p p f remap units box \
#change_box all xy scale -0.1 z boundary p p f remap units box
change_box all z delta 0 0.1 boundary p p s remap units box
  orthogonal box = (-1.42846 -1.42846 -4.39836) to (9.42846 9.42846 28.8368)
#change_box all xy final -0.1 z boundary p p f remap units box
#run 0



thermo 10
thermo_style custom step temp pe etotal press vol density c_1[1] c_1[2] c_1[3] c_1[4] c_1[5] c_1[6]
# NVT relaxation
fix 1 all nvt temp 300 300 1

unfix 1

fix 2 all print 100 "${st} ${sigmazz}" append thermo.out screen no title "# step stress "
#dump 103 all xyz 100 si_min_relaxation.xyz

run 50
Per MPI rank memory allocation (min/avg/max) = 3.097 | 3.097 | 3.097 Mbytes
Step Temp PotEng TotEng Press Volume Density c_1[1] c_1[2] c_1[3] c_1[4] c_1[5] c_1[6] 
     850 9.3742484e-21   -791.20969   -791.20969   -57507.549    3918.2978    2.2852568   -41541.732   -41541.732   -89439.183   -2020.3171 2.7863485e-08 2.8260921e-08 
     860 9.3742484e-21   -791.20969   -791.20969   -57507.549    3918.2978    2.2852568   -41541.732   -41541.732   -89439.183   -2020.3171 2.7863485e-08 2.8260921e-08 
     870 9.3742484e-21   -791.20969   -791.20969   -57507.549    3918.2978    2.2852568   -41541.732   -41541.732   -89439.183   -2020.3171 2.7863485e-08 2.8260921e-08 
     880 9.3742484e-21   -791.20969   -791.20969   -57507.549    3918.2978    2.2852568   -41541.732   -41541.732   -89439.183   -2020.3171 2.7863485e-08 2.8260921e-08 
     890 9.3742484e-21   -791.20969   -791.20969   -57507.549    3918.2978    2.2852568   -41541.732   -41541.732   -89439.183   -2020.3171 2.7863485e-08 2.8260921e-08 
     900 9.3742484e-21   -791.20969   -791.20969   -57507.549    3918.2978    2.2852568   -41541.732   -41541.732   -89439.183   -2020.3171 2.7863485e-08 2.8260921e-08 
Loop time of 0.0398951 on 1 procs for 50 steps with 192 atoms

Performance: 10828.409 ns/day, 0.002 hours/ns, 1253.288 timesteps/s
39.2% CPU use with 1 MPI tasks x 1 OpenMP threads

MPI task timing breakdown:
Section |  min time  |  avg time  |  max time  |%varavg| %total
---------------------------------------------------------------
Pair    | 0.0059872  | 0.0059872  | 0.0059872  |   0.0 | 15.01
Neigh   | 0          | 0          | 0          |   0.0 |  0.00
Comm    | 0          | 0          | 0          |   0.0 |  0.00
Output  | 0.033908   | 0.033908   | 0.033908   |   0.0 | 84.99
Modify  | 0          | 0          | 0          |   0.0 |  0.00
Other   |            | 0          |            |       |  0.00

Nlocal:    192 ave 192 max 192 min
Histogram: 1 0 0 0 0 0 0 0 0 0
Nghost:    678 ave 678 max 678 min
Histogram: 1 0 0 0 0 0 0 0 0 0
Neighs:    0 ave 0 max 0 min
Histogram: 1 0 0 0 0 0 0 0 0 0
FullNghs:  5824 ave 5824 max 5824 min
Histogram: 1 0 0 0 0 0 0 0 0 0

Total # of neighbors = 5824
Ave neighs/atom = 30.3333
Neighbor list builds = 0
Dangerous builds = 0

jump            in.lj.for loop
next            index

#change_box all xy final -0.1 z final 0.0 0.5 boundary p p f remap units box \
#change_box all xy scale -0.1 z boundary p p f remap units box
change_box all z delta 0 0.1 boundary p p s remap units box
  orthogonal box = (-1.42846 -1.42846 -4.40502) to (9.42846 9.42846 28.9435)
#change_box all xy final -0.1 z boundary p p f remap units box
#run 0



thermo 10
thermo_style custom step temp pe etotal press vol density c_1[1] c_1[2] c_1[3] c_1[4] c_1[5] c_1[6]
# NVT relaxation
fix 1 all nvt temp 300 300 1

unfix 1

fix 2 all print 100 "${st} ${sigmazz}" append thermo.out screen no title "# step stress "
#dump 103 all xyz 100 si_min_relaxation.xyz

run 50
Per MPI rank memory allocation (min/avg/max) = 3.097 | 3.097 | 3.097 Mbytes
Step Temp PotEng TotEng Press Volume Density c_1[1] c_1[2] c_1[3] c_1[4] c_1[5] c_1[6] 
     900 9.3742484e-21   -790.44439   -790.44439     -60424.9    3931.6573    2.2774917   -43579.735   -43579.735   -94115.229   -2120.0554 2.7614848e-08 2.800405e-08 
     910 9.3742484e-21   -790.44439   -790.44439     -60424.9    3931.6573    2.2774917   -43579.735   -43579.735   -94115.229   -2120.0554 2.7614848e-08 2.800405e-08 
     920 9.3742484e-21   -790.44439   -790.44439     -60424.9    3931.6573    2.2774917   -43579.735   -43579.735   -94115.229   -2120.0554 2.7614848e-08 2.800405e-08 
     930 9.3742484e-21   -790.44439   -790.44439     -60424.9    3931.6573    2.2774917   -43579.735   -43579.735   -94115.229   -2120.0554 2.7614848e-08 2.800405e-08 
     940 9.3742484e-21   -790.44439   -790.44439     -60424.9    3931.6573    2.2774917   -43579.735   -43579.735   -94115.229   -2120.0554 2.7614848e-08 2.800405e-08 
     950 9.3742484e-21   -790.44439   -790.44439     -60424.9    3931.6573    2.2774917   -43579.735   -43579.735   -94115.229   -2120.0554 2.7614848e-08 2.800405e-08 
Loop time of 0.0388961 on 1 procs for 50 steps with 192 atoms

Performance: 11106.517 ns/day, 0.002 hours/ns, 1285.476 timesteps/s
80.3% CPU use with 1 MPI tasks x 1 OpenMP threads

MPI task timing breakdown:
Section |  min time  |  avg time  |  max time  |%varavg| %total
---------------------------------------------------------------
Pair    | 0.006983   | 0.006983   | 0.006983   |   0.0 | 17.95
Neigh   | 0          | 0          | 0          |   0.0 |  0.00
Comm    | 0          | 0          | 0          |   0.0 |  0.00
Output  | 0.031913   | 0.031913   | 0.031913   |   0.0 | 82.05
Modify  | 0          | 0          | 0          |   0.0 |  0.00
Other   |            | 0          |            |       |  0.00

Nlocal:    192 ave 192 max 192 min
Histogram: 1 0 0 0 0 0 0 0 0 0
Nghost:    678 ave 678 max 678 min
Histogram: 1 0 0 0 0 0 0 0 0 0
Neighs:    0 ave 0 max 0 min
Histogram: 1 0 0 0 0 0 0 0 0 0
FullNghs:  5824 ave 5824 max 5824 min
Histogram: 1 0 0 0 0 0 0 0 0 0

Total # of neighbors = 5824
Ave neighs/atom = 30.3333
Neighbor list builds = 0
Dangerous builds = 0

jump            in.lj.for loop
next            index

#change_box all xy final -0.1 z final 0.0 0.5 boundary p p f remap units box \
#change_box all xy scale -0.1 z boundary p p f remap units box
change_box all z delta 0 0.1 boundary p p s remap units box
  orthogonal box = (-1.42846 -1.42846 -4.4117) to (9.42846 9.42846 29.0501)
#change_box all xy final -0.1 z boundary p p f remap units box
#run 0



thermo 10
thermo_style custom step temp pe etotal press vol density c_1[1] c_1[2] c_1[3] c_1[4] c_1[5] c_1[6]
# NVT relaxation
fix 1 all nvt temp 300 300 1

unfix 1

fix 2 all print 100 "${st} ${sigmazz}" append thermo.out screen no title "# step stress "
#dump 103 all xyz 100 si_min_relaxation.xyz

run 50
Per MPI rank memory allocation (min/avg/max) = 3.097 | 3.097 | 3.097 Mbytes
Step Temp PotEng TotEng Press Volume Density c_1[1] c_1[2] c_1[3] c_1[4] c_1[5] c_1[6] 
     950 9.3742484e-21   -789.63996   -789.63996   -63305.921    3945.0221    2.2697761   -45584.232   -45584.232     -98749.3   -2218.2278 2.7355221e-08 2.7721457e-08 
     960 9.3742484e-21   -789.63996   -789.63996   -63305.921    3945.0221    2.2697761   -45584.232   -45584.232     -98749.3   -2218.2278 2.7355221e-08 2.7721457e-08 
     970 9.3742484e-21   -789.63996   -789.63996   -63305.921    3945.0221    2.2697761   -45584.232   -45584.232     -98749.3   -2218.2278 2.7355221e-08 2.7721457e-08 
     980 9.3742484e-21   -789.63996   -789.63996   -63305.921    3945.0221    2.2697761   -45584.232   -45584.232     -98749.3   -2218.2278 2.7355221e-08 2.7721457e-08 
     990 9.3742484e-21   -789.63996   -789.63996   -63305.921    3945.0221    2.2697761   -45584.232   -45584.232     -98749.3   -2218.2278 2.7355221e-08 2.7721457e-08 
    1000 9.3742484e-21   -789.63996   -789.63996   -63305.921    3945.0221    2.2697761   -45584.232   -45584.232     -98749.3   -2218.2278 2.7355221e-08 2.7721457e-08 
Loop time of 0.0309169 on 1 procs for 50 steps with 192 atoms

Performance: 13972.927 ns/day, 0.002 hours/ns, 1617.237 timesteps/s
50.5% CPU use with 1 MPI tasks x 1 OpenMP threads

MPI task timing breakdown:
Section |  min time  |  avg time  |  max time  |%varavg| %total
---------------------------------------------------------------
Pair    | 0.0059888  | 0.0059888  | 0.0059888  |   0.0 | 19.37
Neigh   | 0          | 0          | 0          |   0.0 |  0.00
Comm    | 0          | 0          | 0          |   0.0 |  0.00
Output  | 0.024928   | 0.024928   | 0.024928   |   0.0 | 80.63
Modify  | 0          | 0          | 0          |   0.0 |  0.00
Other   |            | 0          |            |       |  0.00

Nlocal:    192 ave 192 max 192 min
Histogram: 1 0 0 0 0 0 0 0 0 0
Nghost:    678 ave 678 max 678 min
Histogram: 1 0 0 0 0 0 0 0 0 0
Neighs:    0 ave 0 max 0 min
Histogram: 1 0 0 0 0 0 0 0 0 0
FullNghs:  5824 ave 5824 max 5824 min
Histogram: 1 0 0 0 0 0 0 0 0 0

Total # of neighbors = 5824
Ave neighs/atom = 30.3333
Neighbor list builds = 0
Dangerous builds = 0

jump            in.lj.for loop
next            index

#change_box all xy final -0.1 z final 0.0 0.5 boundary p p f remap units box \
#change_box all xy scale -0.1 z boundary p p f remap units box
change_box all z delta 0 0.1 boundary p p s remap units box
  orthogonal box = (-1.42846 -1.42846 -4.4184) to (9.42846 9.42846 29.1568)
#change_box all xy final -0.1 z boundary p p f remap units box
#run 0



thermo 10
thermo_style custom step temp pe etotal press vol density c_1[1] c_1[2] c_1[3] c_1[4] c_1[5] c_1[6]
# NVT relaxation
fix 1 all nvt temp 300 300 1

unfix 1

fix 2 all print 100 "${st} ${sigmazz}" append thermo.out screen no title "# step stress "
#dump 103 all xyz 100 si_min_relaxation.xyz

run 50
Per MPI rank memory allocation (min/avg/max) = 3.097 | 3.097 | 3.097 Mbytes
Step Temp PotEng TotEng Press Volume Density c_1[1] c_1[2] c_1[3] c_1[4] c_1[5] c_1[6] 
    1000 9.3742484e-21   -788.79671   -788.79671   -66151.052    3958.3922    2.2621095   -47555.853   -47555.853   -103341.45    -2314.859 2.7035624e-08 2.7475358e-08 
    1010 9.3742484e-21   -788.79671   -788.79671   -66151.052    3958.3922    2.2621095   -47555.853   -47555.853   -103341.45    -2314.859 2.7035624e-08 2.7475358e-08 
    1020 9.3742484e-21   -788.79671   -788.79671   -66151.052    3958.3922    2.2621095   -47555.853   -47555.853   -103341.45    -2314.859 2.7035624e-08 2.7475358e-08 
    1030 9.3742484e-21   -788.79671   -788.79671   -66151.052    3958.3922    2.2621095   -47555.853   -47555.853   -103341.45    -2314.859 2.7035624e-08 2.7475358e-08 
    1040 9.3742484e-21   -788.79671   -788.79671   -66151.052    3958.3922    2.2621095   -47555.853   -47555.853   -103341.45    -2314.859 2.7035624e-08 2.7475358e-08 
    1050 9.3742484e-21   -788.79671   -788.79671   -66151.052    3958.3922    2.2621095   -47555.853   -47555.853   -103341.45    -2314.859 2.7035624e-08 2.7475358e-08 
Loop time of 0.0349071 on 1 procs for 50 steps with 192 atoms

Performance: 12375.705 ns/day, 0.002 hours/ns, 1432.373 timesteps/s
44.8% CPU use with 1 MPI tasks x 1 OpenMP threads

MPI task timing breakdown:
Section |  min time  |  avg time  |  max time  |%varavg| %total
---------------------------------------------------------------
Pair    | 0.0069861  | 0.0069861  | 0.0069861  |   0.0 | 20.01
Neigh   | 0          | 0          | 0          |   0.0 |  0.00
Comm    | 0          | 0          | 0          |   0.0 |  0.00
Output  | 0.027921   | 0.027921   | 0.027921   |   0.0 | 79.99
Modify  | 0          | 0          | 0          |   0.0 |  0.00
Other   |            | 0          |            |       |  0.00

Nlocal:    192 ave 192 max 192 min
Histogram: 1 0 0 0 0 0 0 0 0 0
Nghost:    678 ave 678 max 678 min
Histogram: 1 0 0 0 0 0 0 0 0 0
Neighs:    0 ave 0 max 0 min
Histogram: 1 0 0 0 0 0 0 0 0 0
FullNghs:  5824 ave 5824 max 5824 min
Histogram: 1 0 0 0 0 0 0 0 0 0

Total # of neighbors = 5824
Ave neighs/atom = 30.3333
Neighbor list builds = 0
Dangerous builds = 0

jump            in.lj.for loop
next            index

#change_box all xy final -0.1 z final 0.0 0.5 boundary p p f remap units box \
#change_box all xy scale -0.1 z boundary p p f remap units box
change_box all z delta 0 0.1 boundary p p s remap units box
  orthogonal box = (-1.42846 -1.42846 -4.42513) to (9.42846 9.42846 29.2636)
#change_box all xy final -0.1 z boundary p p f remap units box
#run 0



thermo 10
thermo_style custom step temp pe etotal press vol density c_1[1] c_1[2] c_1[3] c_1[4] c_1[5] c_1[6]
# NVT relaxation
fix 1 all nvt temp 300 300 1

unfix 1

fix 2 all print 100 "${st} ${sigmazz}" append thermo.out screen no title "# step stress "
#dump 103 all xyz 100 si_min_relaxation.xyz

run 50
Per MPI rank memory allocation (min/avg/max) = 3.097 | 3.097 | 3.097 Mbytes
Step Temp PotEng TotEng Press Volume Density c_1[1] c_1[2] c_1[3] c_1[4] c_1[5] c_1[6] 
    1050 9.3742484e-21   -787.91495   -787.91495   -68960.726    3971.7677    2.2544915   -49495.218   -49495.218   -107891.74   -2409.9733 2.6798778e-08 2.7176415e-08 
    1060 9.3742484e-21   -787.91495   -787.91495   -68960.726    3971.7677    2.2544915   -49495.218   -49495.218   -107891.74   -2409.9733 2.6798778e-08 2.7176415e-08 
    1070 9.3742484e-21   -787.91495   -787.91495   -68960.726    3971.7677    2.2544915   -49495.218   -49495.218   -107891.74   -2409.9733 2.6798778e-08 2.7176415e-08 
    1080 9.3742484e-21   -787.91495   -787.91495   -68960.726    3971.7677    2.2544915   -49495.218   -49495.218   -107891.74   -2409.9733 2.6798778e-08 2.7176415e-08 
    1090 9.3742484e-21   -787.91495   -787.91495   -68960.726    3971.7677    2.2544915   -49495.218   -49495.218   -107891.74   -2409.9733 2.6798778e-08 2.7176415e-08 
    1100 9.3742484e-21   -787.91495   -787.91495   -68960.726    3971.7677    2.2544915   -49495.218   -49495.218   -107891.74   -2409.9733 2.6798778e-08 2.7176415e-08 
Loop time of 0.0319121 on 1 procs for 50 steps with 192 atoms

Performance: 13537.190 ns/day, 0.002 hours/ns, 1566.804 timesteps/s
49.0% CPU use with 1 MPI tasks x 1 OpenMP threads

MPI task timing breakdown:
Section |  min time  |  avg time  |  max time  |%varavg| %total
---------------------------------------------------------------
Pair    | 0.0069802  | 0.0069802  | 0.0069802  |   0.0 | 21.87
Neigh   | 0          | 0          | 0          |   0.0 |  0.00
Comm    | 0          | 0          | 0          |   0.0 |  0.00
Output  | 0.024932   | 0.024932   | 0.024932   |   0.0 | 78.13
Modify  | 0          | 0          | 0          |   0.0 |  0.00
Other   |            | 0          |            |       |  0.00

Nlocal:    192 ave 192 max 192 min
Histogram: 1 0 0 0 0 0 0 0 0 0
Nghost:    678 ave 678 max 678 min
Histogram: 1 0 0 0 0 0 0 0 0 0
Neighs:    0 ave 0 max 0 min
Histogram: 1 0 0 0 0 0 0 0 0 0
FullNghs:  5824 ave 5824 max 5824 min
Histogram: 1 0 0 0 0 0 0 0 0 0

Total # of neighbors = 5824
Ave neighs/atom = 30.3333
Neighbor list builds = 0
Dangerous builds = 0

jump            in.lj.for loop
next            index

#change_box all xy final -0.1 z final 0.0 0.5 boundary p p f remap units box \
#change_box all xy scale -0.1 z boundary p p f remap units box
change_box all z delta 0 0.1 boundary p p s remap units box
  orthogonal box = (-1.42846 -1.42846 -4.43187) to (9.42846 9.42846 29.3703)
#change_box all xy final -0.1 z boundary p p f remap units box
#run 0



thermo 10
thermo_style custom step temp pe etotal press vol density c_1[1] c_1[2] c_1[3] c_1[4] c_1[5] c_1[6]
# NVT relaxation
fix 1 all nvt temp 300 300 1

unfix 1

fix 2 all print 100 "${st} ${sigmazz}" append thermo.out screen no title "# step stress "
#dump 103 all xyz 100 si_min_relaxation.xyz

run 50
Per MPI rank memory allocation (min/avg/max) = 3.097 | 3.097 | 3.097 Mbytes
Step Temp PotEng TotEng Press Volume Density c_1[1] c_1[2] c_1[3] c_1[4] c_1[5] c_1[6] 
    1100 9.3742484e-21   -786.99502   -786.99502   -71735.372    3985.1485    2.2469217   -51402.935   -51402.935   -112400.25   -2503.5945 2.6585699e-08 2.6938522e-08 
    1110 9.3742484e-21   -786.99502   -786.99502   -71735.372    3985.1485    2.2469217   -51402.935   -51402.935   -112400.25   -2503.5945 2.6585699e-08 2.6938522e-08 
    1120 9.3742484e-21   -786.99502   -786.99502   -71735.372    3985.1485    2.2469217   -51402.935   -51402.935   -112400.25   -2503.5945 2.6585699e-08 2.6938522e-08 
    1130 9.3742484e-21   -786.99502   -786.99502   -71735.372    3985.1485    2.2469217   -51402.935   -51402.935   -112400.25   -2503.5945 2.6585699e-08 2.6938522e-08 
    1140 9.3742484e-21   -786.99502   -786.99502   -71735.372    3985.1485    2.2469217   -51402.935   -51402.935   -112400.25   -2503.5945 2.6585699e-08 2.6938522e-08 
    1150 9.3742484e-21   -786.99502   -786.99502   -71735.372    3985.1485    2.2469217   -51402.935   -51402.935   -112400.25   -2503.5945 2.6585699e-08 2.6938522e-08 
Loop time of 0.035907 on 1 procs for 50 steps with 192 atoms

Performance: 12031.070 ns/day, 0.002 hours/ns, 1392.485 timesteps/s
0.0% CPU use with 1 MPI tasks x 1 OpenMP threads

MPI task timing breakdown:
Section |  min time  |  avg time  |  max time  |%varavg| %total
---------------------------------------------------------------
Pair    | 0.004988   | 0.004988   | 0.004988   |   0.0 | 13.89
Neigh   | 0          | 0          | 0          |   0.0 |  0.00
Comm    | 0          | 0          | 0          |   0.0 |  0.00
Output  | 0.029921   | 0.029921   | 0.029921   |   0.0 | 83.33
Modify  | 0          | 0          | 0          |   0.0 |  0.00
Other   |            | 0.000998   |            |       |  2.78

Nlocal:    192 ave 192 max 192 min
Histogram: 1 0 0 0 0 0 0 0 0 0
Nghost:    678 ave 678 max 678 min
Histogram: 1 0 0 0 0 0 0 0 0 0
Neighs:    0 ave 0 max 0 min
Histogram: 1 0 0 0 0 0 0 0 0 0
FullNghs:  5824 ave 5824 max 5824 min
Histogram: 1 0 0 0 0 0 0 0 0 0

Total # of neighbors = 5824
Ave neighs/atom = 30.3333
Neighbor list builds = 0
Dangerous builds = 0

jump            in.lj.for loop
next            index

#change_box all xy final -0.1 z final 0.0 0.5 boundary p p f remap units box \
#change_box all xy scale -0.1 z boundary p p f remap units box
change_box all z delta 0 0.1 boundary p p s remap units box
  orthogonal box = (-1.42846 -1.42846 -4.43865) to (9.42846 9.42846 29.4771)
#change_box all xy final -0.1 z boundary p p f remap units box
#run 0



thermo 10
thermo_style custom step temp pe etotal press vol density c_1[1] c_1[2] c_1[3] c_1[4] c_1[5] c_1[6]
# NVT relaxation
fix 1 all nvt temp 300 300 1

unfix 1

fix 2 all print 100 "${st} ${sigmazz}" append thermo.out screen no title "# step stress "
#dump 103 all xyz 100 si_min_relaxation.xyz

run 50
Per MPI rank memory allocation (min/avg/max) = 3.097 | 3.097 | 3.097 Mbytes
Step Temp PotEng TotEng Press Volume Density c_1[1] c_1[2] c_1[3] c_1[4] c_1[5] c_1[6] 
    1150 9.3742484e-21   -786.03723   -786.03723   -74475.419    3998.5347    2.2393995   -53279.601   -53279.601   -116867.05    -2595.746 2.6304146e-08 2.6659424e-08 
    1160 9.3742484e-21   -786.03723   -786.03723   -74475.419    3998.5347    2.2393995   -53279.601   -53279.601   -116867.05    -2595.746 2.6304146e-08 2.6659424e-08 
    1170 9.3742484e-21   -786.03723   -786.03723   -74475.419    3998.5347    2.2393995   -53279.601   -53279.601   -116867.05    -2595.746 2.6304146e-08 2.6659424e-08 
    1180 9.3742484e-21   -786.03723   -786.03723   -74475.419    3998.5347    2.2393995   -53279.601   -53279.601   -116867.05    -2595.746 2.6304146e-08 2.6659424e-08 
    1190 9.3742484e-21   -786.03723   -786.03723   -74475.419    3998.5347    2.2393995   -53279.601   -53279.601   -116867.05    -2595.746 2.6304146e-08 2.6659424e-08 
    1200 9.3742484e-21   -786.03723   -786.03723   -74475.419    3998.5347    2.2393995   -53279.601   -53279.601   -116867.05    -2595.746 2.6304146e-08 2.6659424e-08 
Loop time of 0.036901 on 1 procs for 50 steps with 192 atoms

Performance: 11707.001 ns/day, 0.002 hours/ns, 1354.977 timesteps/s
0.0% CPU use with 1 MPI tasks x 1 OpenMP threads

MPI task timing breakdown:
Section |  min time  |  avg time  |  max time  |%varavg| %total
---------------------------------------------------------------
Pair    | 0.0059817  | 0.0059817  | 0.0059817  |   0.0 | 16.21
Neigh   | 0          | 0          | 0          |   0.0 |  0.00
Comm    | 0          | 0          | 0          |   0.0 |  0.00
Output  | 0.030919   | 0.030919   | 0.030919   |   0.0 | 83.79
Modify  | 0          | 0          | 0          |   0.0 |  0.00
Other   |            | 0          |            |       |  0.00

Nlocal:    192 ave 192 max 192 min
Histogram: 1 0 0 0 0 0 0 0 0 0
Nghost:    678 ave 678 max 678 min
Histogram: 1 0 0 0 0 0 0 0 0 0
Neighs:    0 ave 0 max 0 min
Histogram: 1 0 0 0 0 0 0 0 0 0
FullNghs:  5824 ave 5824 max 5824 min
Histogram: 1 0 0 0 0 0 0 0 0 0

Total # of neighbors = 5824
Ave neighs/atom = 30.3333
Neighbor list builds = 0
Dangerous builds = 0

jump            in.lj.for loop
next            index

#change_box all xy final -0.1 z final 0.0 0.5 boundary p p f remap units box \
#change_box all xy scale -0.1 z boundary p p f remap units box
[...]
    2150 9.3742484e-21   -759.41491   -759.41491    -122634.1     4267.386    2.0983142   -85123.787   -85123.787   -197654.74   -4163.1158 2.1547105e-08 2.1821056e-08 
    2160 9.3742484e-21   -759.41491   -759.41491    -122634.1     4267.386    2.0983142   -85123.787   -85123.787   -197654.74   -4163.1158 2.1547105e-08 2.1821056e-08 
    2170 9.3742484e-21   -759.41491   -759.41491    -122634.1     4267.386    2.0983142   -85123.787   -85123.787   -197654.74   -4163.1158 2.1547105e-08 2.1821056e-08 
    2180 9.3742484e-21   -759.41491   -759.41491    -122634.1     4267.386    2.0983142   -85123.787   -85123.787   -197654.74   -4163.1158 2.1547105e-08 2.1821056e-08 
    2190 9.3742484e-21   -759.41491   -759.41491    -122634.1     4267.386    2.0983142   -85123.787   -85123.787   -197654.74   -4163.1158 2.1547105e-08 2.1821056e-08 
    2200 9.3742484e-21   -759.41491   -759.41491    -122634.1     4267.386    2.0983142   -85123.787   -85123.787   -197654.74   -4163.1158 2.1547105e-08 2.1821056e-08 
Loop time of 0.0309169 on 1 procs for 50 steps with 192 atoms

Performance: 13972.927 ns/day, 0.002 hours/ns, 1617.237 timesteps/s
50.5% CPU use with 1 MPI tasks x 1 OpenMP threads

MPI task timing breakdown:
Section |  min time  |  avg time  |  max time  |%varavg| %total
---------------------------------------------------------------
Pair    | 0.0039871  | 0.0039871  | 0.0039871  |   0.0 | 12.90
Neigh   | 0          | 0          | 0          |   0.0 |  0.00
Comm    | 0          | 0          | 0          |   0.0 |  0.00
Output  | 0.025932   | 0.025932   | 0.025932   |   0.0 | 83.88
Modify  | 0          | 0          | 0          |   0.0 |  0.00
Other   |            | 0.000998   |            |       |  3.23

Nlocal:    192 ave 192 max 192 min
Histogram: 1 0 0 0 0 0 0 0 0 0
Nghost:    678 ave 678 max 678 min
Histogram: 1 0 0 0 0 0 0 0 0 0
Neighs:    0 ave 0 max 0 min
Histogram: 1 0 0 0 0 0 0 0 0 0
FullNghs:  5824 ave 5824 max 5824 min
Histogram: 1 0 0 0 0 0 0 0 0 0

Total # of neighbors = 5824
Ave neighs/atom = 30.3333
Neighbor list builds = 0
Dangerous builds = 0

jump            in.lj.for loop
next            index

#change_box all xy final -0.1 z final 0.0 0.5 boundary p p f remap units box \
#change_box all xy scale -0.1 z boundary p p f remap units box
change_box all z delta 0 0.1 boundary p p s remap units box
  orthogonal box = (-1.42846 -1.42846 -4.5861) to (9.42846 9.42846 31.7245)
#change_box all xy final -0.1 z boundary p p f remap units box
#run 0



thermo 10
thermo_style custom step temp pe etotal press vol density c_1[1] c_1[2] c_1[3] c_1[4] c_1[5] c_1[6]
# NVT relaxation
fix 1 all nvt temp 300 300 1

unfix 1

fix 2 all print 100 "${st} ${sigmazz}" append thermo.out screen no title "# step stress "
#dump 103 all xyz 100 si_min_relaxation.xyz

run 50
Per MPI rank memory allocation (min/avg/max) = 3.097 | 3.097 | 3.097 Mbytes
Step Temp PotEng TotEng Press Volume Density c_1[1] c_1[2] c_1[3] c_1[4] c_1[5] c_1[6] 
    2200 9.3742484e-21   -757.73427   -757.73427   -124739.49     4280.885    2.0916975   -86468.852   -86468.852   -201280.76   -4229.1964 2.1376746e-08 2.165698e-08 
    2210 9.3742484e-21   -757.73427   -757.73427   -124739.49     4280.885    2.0916975   -86468.852   -86468.852   -201280.76   -4229.1964 2.1376746e-08 2.165698e-08 
    2220 9.3742484e-21   -757.73427   -757.73427   -124739.49     4280.885    2.0916975   -86468.852   -86468.852   -201280.76   -4229.1964 2.1376746e-08 2.165698e-08 
    2230 9.3742484e-21   -757.73427   -757.73427   -124739.49     4280.885    2.0916975   -86468.852   -86468.852   -201280.76   -4229.1964 2.1376746e-08 2.165698e-08 
    2240 9.3742484e-21   -757.73427   -757.73427   -124739.49     4280.885    2.0916975   -86468.852   -86468.852   -201280.76   -4229.1964 2.1376746e-08 2.165698e-08 
    2250 9.3742484e-21   -757.73427   -757.73427   -124739.49     4280.885    2.0916975   -86468.852   -86468.852   -201280.76   -4229.1964 2.1376746e-08 2.165698e-08 
Loop time of 0.0359039 on 1 procs for 50 steps with 192 atoms

Performance: 12032.109 ns/day, 0.002 hours/ns, 1392.605 timesteps/s
0.0% CPU use with 1 MPI tasks x 1 OpenMP threads

MPI task timing breakdown:
Section |  min time  |  avg time  |  max time  |%varavg| %total
---------------------------------------------------------------
Pair    | 0.0059841  | 0.0059841  | 0.0059841  |   0.0 | 16.67
Neigh   | 0          | 0          | 0          |   0.0 |  0.00
Comm    | 0          | 0          | 0          |   0.0 |  0.00
Output  | 0.02992    | 0.02992    | 0.02992    |   0.0 | 83.33
Modify  | 0          | 0          | 0          |   0.0 |  0.00
Other   |            | 0          |            |       |  0.00

Nlocal:    192 ave 192 max 192 min
Histogram: 1 0 0 0 0 0 0 0 0 0
Nghost:    678 ave 678 max 678 min
Histogram: 1 0 0 0 0 0 0 0 0 0
Neighs:    0 ave 0 max 0 min
Histogram: 1 0 0 0 0 0 0 0 0 0
FullNghs:  5824 ave 5824 max 5824 min
Histogram: 1 0 0 0 0 0 0 0 0 0

Total # of neighbors = 5824
Ave neighs/atom = 30.3333
Neighbor list builds = 0
Dangerous builds = 0

jump            in.lj.for loop
next            index

#change_box all xy final -0.1 z final 0.0 0.5 boundary p p f remap units box \
#change_box all xy scale -0.1 z boundary p p f remap units box
change_box all z delta 0 0.1 boundary p p s remap units box
  orthogonal box = (-1.42846 -1.42846 -4.59337) to (9.42846 9.42846 31.8318)
#change_box all xy final -0.1 z boundary p p f remap units box
#run 0



thermo 10
thermo_style custom step temp pe etotal press vol density c_1[1] c_1[2] c_1[3] c_1[4] c_1[5] c_1[6]
# NVT relaxation
fix 1 all nvt temp 300 300 1

unfix 1

fix 2 all print 100 "${st} ${sigmazz}" append thermo.out screen no title "# step stress "
#dump 103 all xyz 100 si_min_relaxation.xyz

run 50
Per MPI rank memory allocation (min/avg/max) = 3.097 | 3.097 | 3.097 Mbytes
Step Temp PotEng TotEng Press Volume Density c_1[1] c_1[2] c_1[3] c_1[4] c_1[5] c_1[6] 
    2250 9.3742484e-21   -756.02256   -756.02256   -126818.72    4294.3895    2.0851198   -87793.546   -87793.546   -204869.06   -4294.2352 2.1120995e-08 2.1401218e-08 
    2260 9.3742484e-21   -756.02256   -756.02256   -126818.72    4294.3895    2.0851198   -87793.546   -87793.546   -204869.06   -4294.2352 2.1120995e-08 2.1401218e-08 
    2270 9.3742484e-21   -756.02256   -756.02256   -126818.72    4294.3895    2.0851198   -87793.546   -87793.546   -204869.06   -4294.2352 2.1120995e-08 2.1401218e-08 
    2280 9.3742484e-21   -756.02256   -756.02256   -126818.72    4294.3895    2.0851198   -87793.546   -87793.546   -204869.06   -4294.2352 2.1120995e-08 2.1401218e-08 
    2290 9.3742484e-21   -756.02256   -756.02256   -126818.72    4294.3895    2.0851198   -87793.546   -87793.546   -204869.06   -4294.2352 2.1120995e-08 2.1401218e-08 
    2300 9.3742484e-21   -756.02256   -756.02256   -126818.72    4294.3895    2.0851198   -87793.546   -87793.546   -204869.06   -4294.2352 2.1120995e-08 2.1401218e-08 
Loop time of 0.0359039 on 1 procs for 50 steps with 192 atoms

Performance: 12032.109 ns/day, 0.002 hours/ns, 1392.605 timesteps/s
43.5% CPU use with 1 MPI tasks x 1 OpenMP threads

MPI task timing breakdown:
Section |  min time  |  avg time  |  max time  |%varavg| %total
---------------------------------------------------------------
Pair    | 0.0069799  | 0.0069799  | 0.0069799  |   0.0 | 19.44
Neigh   | 0          | 0          | 0          |   0.0 |  0.00
Comm    | 0          | 0          | 0          |   0.0 |  0.00
Output  | 0.028924   | 0.028924   | 0.028924   |   0.0 | 80.56
Modify  | 0          | 0          | 0          |   0.0 |  0.00
Other   |            | 0          |            |       |  0.00

Nlocal:    192 ave 192 max 192 min
Histogram: 1 0 0 0 0 0 0 0 0 0
Nghost:    678 ave 678 max 678 min
Histogram: 1 0 0 0 0 0 0 0 0 0
Neighs:    0 ave 0 max 0 min
Histogram: 1 0 0 0 0 0 0 0 0 0
FullNghs:  5824 ave 5824 max 5824 min
Histogram: 1 0 0 0 0 0 0 0 0 0

Total # of neighbors = 5824
Ave neighs/atom = 30.3333
Neighbor list builds = 0
Dangerous builds = 0

jump            in.lj.for loop
next            index

#change_box all xy final -0.1 z final 0.0 0.5 boundary p p f remap units box \
#change_box all xy scale -0.1 z boundary p p f remap units box
change_box all z delta 0 0.1 boundary p p s remap units box
  orthogonal box = (-1.42846 -1.42846 -4.60067) to (9.42846 9.42846 31.9391)
#change_box all xy final -0.1 z boundary p p f remap units box
#run 0



thermo 10
thermo_style custom step temp pe etotal press vol density c_1[1] c_1[2] c_1[3] c_1[4] c_1[5] c_1[6]
# NVT relaxation
fix 1 all nvt temp 300 300 1

unfix 1

fix 2 all print 100 "${st} ${sigmazz}" append thermo.out screen no title "# step stress "
#dump 103 all xyz 100 si_min_relaxation.xyz

run 50
Per MPI rank memory allocation (min/avg/max) = 3.097 | 3.097 | 3.097 Mbytes
Step Temp PotEng TotEng Press Volume Density c_1[1] c_1[2] c_1[3] c_1[4] c_1[5] c_1[6] 
    2300 9.3742484e-21   -754.28006   -754.28006   -128872.13    4307.8994    2.0785807   -89098.252   -89098.252    -208419.9    -4358.248 2.0867143e-08 2.1124674e-08 
    2310 9.3742484e-21   -754.28006   -754.28006   -128872.13    4307.8994    2.0785807   -89098.252   -89098.252    -208419.9    -4358.248 2.0867143e-08 2.1124674e-08 
    2320 9.3742484e-21   -754.28006   -754.28006   -128872.13    4307.8994    2.0785807   -89098.252   -89098.252    -208419.9    -4358.248 2.0867143e-08 2.1124674e-08 
    2330 9.3742484e-21   -754.28006   -754.28006   -128872.13    4307.8994    2.0785807   -89098.252   -89098.252    -208419.9    -4358.248 2.0867143e-08 2.1124674e-08 
    2340 9.3742484e-21   -754.28006   -754.28006   -128872.13    4307.8994    2.0785807   -89098.252   -89098.252    -208419.9    -4358.248 2.0867143e-08 2.1124674e-08 
    2350 9.3742484e-21   -754.28006   -754.28006   -128872.13    4307.8994    2.0785807   -89098.252   -89098.252    -208419.9    -4358.248 2.0867143e-08 2.1124674e-08 
Loop time of 0.033911 on 1 procs for 50 steps with 192 atoms

Performance: 12739.233 ns/day, 0.002 hours/ns, 1474.448 timesteps/s
46.1% CPU use with 1 MPI tasks x 1 OpenMP threads

MPI task timing breakdown:
Section |  min time  |  avg time  |  max time  |%varavg| %total
---------------------------------------------------------------
Pair    | 0.005985   | 0.005985   | 0.005985   |   0.0 | 17.65
Neigh   | 0          | 0          | 0          |   0.0 |  0.00
Comm    | 0          | 0          | 0          |   0.0 |  0.00
Output  | 0.027926   | 0.027926   | 0.027926   |   0.0 | 82.35
Modify  | 0          | 0          | 0          |   0.0 |  0.00
Other   |            | 0          |            |       |  0.00

Nlocal:    192 ave 192 max 192 min
Histogram: 1 0 0 0 0 0 0 0 0 0
Nghost:    678 ave 678 max 678 min
Histogram: 1 0 0 0 0 0 0 0 0 0
Neighs:    0 ave 0 max 0 min
Histogram: 1 0 0 0 0 0 0 0 0 0
FullNghs:  5824 ave 5824 max 5824 min
Histogram: 1 0 0 0 0 0 0 0 0 0

Total # of neighbors = 5824
Ave neighs/atom = 30.3333
Neighbor list builds = 0
Dangerous builds = 0

jump            in.lj.for loop
next            index

#change_box all xy final -0.1 z final 0.0 0.5 boundary p p f remap units box \
#change_box all xy scale -0.1 z boundary p p f remap units box
change_box all z delta 0 0.1 boundary p p s remap units box
  orthogonal box = (-1.42846 -1.42846 -4.60799) to (9.42846 9.42846 32.0464)
#change_box all xy final -0.1 z boundary p p f remap units box
#run 0



thermo 10
thermo_style custom step temp pe etotal press vol density c_1[1] c_1[2] c_1[3] c_1[4] c_1[5] c_1[6]
# NVT relaxation
fix 1 all nvt temp 300 300 1

unfix 1

fix 2 all print 100 "${st} ${sigmazz}" append thermo.out screen no title "# step stress "
#dump 103 all xyz 100 si_min_relaxation.xyz

run 50
Per MPI rank memory allocation (min/avg/max) = 3.097 | 3.097 | 3.097 Mbytes
Step Temp PotEng TotEng Press Volume Density c_1[1] c_1[2] c_1[3] c_1[4] c_1[5] c_1[6] 
    2350 9.3742484e-21   -752.50707   -752.50707   -130900.08    4321.4148    2.0720799   -90383.343   -90383.343   -211933.55   -4421.2502 2.0661879e-08 2.1004931e-08 
    2360 9.3742484e-21   -752.50707   -752.50707   -130900.08    4321.4148    2.0720799   -90383.343   -90383.343   -211933.55   -4421.2502 2.0661879e-08 2.1004931e-08 
    2370 9.3742484e-21   -752.50707   -752.50707   -130900.08    4321.4148    2.0720799   -90383.343   -90383.343   -211933.55   -4421.2502 2.0661879e-08 2.1004931e-08 
    2380 9.3742484e-21   -752.50707   -752.50707   -130900.08    4321.4148    2.0720799   -90383.343   -90383.343   -211933.55   -4421.2502 2.0661879e-08 2.1004931e-08 
    2390 9.3742484e-21   -752.50707   -752.50707   -130900.08    4321.4148    2.0720799   -90383.343   -90383.343   -211933.55   -4421.2502 2.0661879e-08 2.1004931e-08 
    2400 9.3742484e-21   -752.50707   -752.50707   -130900.08    4321.4148    2.0720799   -90383.343   -90383.343   -211933.55   -4421.2502 2.0661879e-08 2.1004931e-08 
Loop time of 0.030916 on 1 procs for 50 steps with 192 atoms

Performance: 13973.358 ns/day, 0.002 hours/ns, 1617.287 timesteps/s
50.5% CPU use with 1 MPI tasks x 1 OpenMP threads

MPI task timing breakdown:
Section |  min time  |  avg time  |  max time  |%varavg| %total
---------------------------------------------------------------
Pair    | 0.007978   | 0.007978   | 0.007978   |   0.0 | 25.81
Neigh   | 0          | 0          | 0          |   0.0 |  0.00
Comm    | 0          | 0          | 0          |   0.0 |  0.00
Output  | 0.022938   | 0.022938   | 0.022938   |   0.0 | 74.19
Modify  | 0          | 0          | 0          |   0.0 |  0.00
Other   |            | 0          |            |       |  0.00

Nlocal:    192 ave 192 max 192 min
Histogram: 1 0 0 0 0 0 0 0 0 0
Nghost:    678 ave 678 max 678 min
Histogram: 1 0 0 0 0 0 0 0 0 0
Neighs:    0 ave 0 max 0 min
Histogram: 1 0 0 0 0 0 0 0 0 0
FullNghs:  5824 ave 5824 max 5824 min
Histogram: 1 0 0 0 0 0 0 0 0 0

Total # of neighbors = 5824
Ave neighs/atom = 30.3333
Neighbor list builds = 0
Dangerous builds = 0

jump            in.lj.for loop
next            index

#change_box all xy final -0.1 z final 0.0 0.5 boundary p p f remap units box \
#change_box all xy scale -0.1 z boundary p p f remap units box
change_box all z delta 0 0.1 boundary p p s remap units box
  orthogonal box = (-1.42846 -1.42846 -4.61533) to (9.42846 9.42846 32.1538)
#change_box all xy final -0.1 z boundary p p f remap units box
#run 0



thermo 10
thermo_style custom step temp pe etotal press vol density c_1[1] c_1[2] c_1[3] c_1[4] c_1[5] c_1[6]
# NVT relaxation
fix 1 all nvt temp 300 300 1

unfix 1

fix 2 all print 100 "${st} ${sigmazz}" append thermo.out screen no title "# step stress "
#dump 103 all xyz 100 si_min_relaxation.xyz

run 50
Per MPI rank memory allocation (min/avg/max) = 3.097 | 3.097 | 3.097 Mbytes
Step Temp PotEng TotEng Press Volume Density c_1[1] c_1[2] c_1[3] c_1[4] c_1[5] c_1[6] 
    2400 9.3742484e-21   -750.70387   -750.70387   -132902.88    4334.9355    2.0656171   -91649.185   -91649.185   -215410.28   -4483.2569 2.0449406e-08 2.086053e-08 
    2410 9.3742484e-21   -750.70387   -750.70387   -132902.88    4334.9355    2.0656171   -91649.185   -91649.185   -215410.28   -4483.2569 2.0449406e-08 2.086053e-08 
    2420 9.3742484e-21   -750.70387   -750.70387   -132902.88    4334.9355    2.0656171   -91649.185   -91649.185   -215410.28   -4483.2569 2.0449406e-08 2.086053e-08 
    2430 9.3742484e-21   -750.70387   -750.70387   -132902.88    4334.9355    2.0656171   -91649.185   -91649.185   -215410.28   -4483.2569 2.0449406e-08 2.086053e-08 
    2440 9.3742484e-21   -750.70387   -750.70387   -132902.88    4334.9355    2.0656171   -91649.185   -91649.185   -215410.28   -4483.2569 2.0449406e-08 2.086053e-08 
    2450 9.3742484e-21   -750.70387   -750.70387   -132902.88    4334.9355    2.0656171   -91649.185   -91649.185   -215410.28   -4483.2569 2.0449406e-08 2.086053e-08 
Loop time of 0.0349059 on 1 procs for 50 steps with 192 atoms

Performance: 12376.128 ns/day, 0.002 hours/ns, 1432.422 timesteps/s
0.0% CPU use with 1 MPI tasks x 1 OpenMP threads

MPI task timing breakdown:
Section |  min time  |  avg time  |  max time  |%varavg| %total
---------------------------------------------------------------
Pair    | 0.0069849  | 0.0069849  | 0.0069849  |   0.0 | 20.01
Neigh   | 0          | 0          | 0          |   0.0 |  0.00
Comm    | 0.00099492 | 0.00099492 | 0.00099492 |   0.0 |  2.85
Output  | 0.026926   | 0.026926   | 0.026926   |   0.0 | 77.14
Modify  | 0          | 0          | 0          |   0.0 |  0.00
Other   |            | 0          |            |       |  0.00

Nlocal:    192 ave 192 max 192 min
Histogram: 1 0 0 0 0 0 0 0 0 0
Nghost:    678 ave 678 max 678 min
Histogram: 1 0 0 0 0 0 0 0 0 0
Neighs:    0 ave 0 max 0 min
Histogram: 1 0 0 0 0 0 0 0 0 0
FullNghs:  5824 ave 5824 max 5824 min
Histogram: 1 0 0 0 0 0 0 0 0 0

Total # of neighbors = 5824
Ave neighs/atom = 30.3333
Neighbor list builds = 0
Dangerous builds = 0

jump            in.lj.for loop
next            index

#change_box all xy final -0.1 z final 0.0 0.5 boundary p p f remap units box \
#change_box all xy scale -0.1 z boundary p p f remap units box
change_box all z delta 0 0.1 boundary p p s remap units box
  orthogonal box = (-1.42846 -1.42846 -4.62269) to (9.42846 9.42846 32.2611)
#change_box all xy final -0.1 z boundary p p f remap units box
#run 0



thermo 10
thermo_style custom step temp pe etotal press vol density c_1[1] c_1[2] c_1[3] c_1[4] c_1[5] c_1[6]
# NVT relaxation
fix 1 all nvt temp 300 300 1

unfix 1

fix 2 all print 100 "${st} ${sigmazz}" append thermo.out screen no title "# step stress "
#dump 103 all xyz 100 si_min_relaxation.xyz

run 50
Per MPI rank memory allocation (min/avg/max) = 3.097 | 3.097 | 3.097 Mbytes
Step Temp PotEng TotEng Press Volume Density c_1[1] c_1[2] c_1[3] c_1[4] c_1[5] c_1[6] 
    2450 9.3742484e-21   -748.87076   -748.87076   -134880.88    4348.4616    2.0591918   -92896.134   -92896.134   -218850.37   -4544.2828 2.0250317e-08 2.0495598e-08 
    2460 9.3742484e-21   -748.87076   -748.87076   -134880.88    4348.4616    2.0591918   -92896.134   -92896.134   -218850.37   -4544.2828 2.0250317e-08 2.0495598e-08 
    2470 9.3742484e-21   -748.87076   -748.87076   -134880.88    4348.4616    2.0591918   -92896.134   -92896.134   -218850.37   -4544.2828 2.0250317e-08 2.0495598e-08 
    2480 9.3742484e-21   -748.87076   -748.87076   -134880.88    4348.4616    2.0591918   -92896.134   -92896.134   -218850.37   -4544.2828 2.0250317e-08 2.0495598e-08 
    2490 9.3742484e-21   -748.87076   -748.87076   -134880.88    4348.4616    2.0591918   -92896.134   -92896.134   -218850.37   -4544.2828 2.0250317e-08 2.0495598e-08 
    2500 9.3742484e-21   -748.87076   -748.87076   -134880.88    4348.4616    2.0591918   -92896.134   -92896.134   -218850.37   -4544.2828 2.0250317e-08 2.0495598e-08 
Loop time of 0.0339088 on 1 procs for 50 steps with 192 atoms

Performance: 12740.039 ns/day, 0.002 hours/ns, 1474.542 timesteps/s
0.0% CPU use with 1 MPI tasks x 1 OpenMP threads

MPI task timing breakdown:
Section |  min time  |  avg time  |  max time  |%varavg| %total
---------------------------------------------------------------
Pair    | 0.0059788  | 0.0059788  | 0.0059788  |   0.0 | 17.63
Neigh   | 0          | 0          | 0          |   0.0 |  0.00
Comm    | 0          | 0          | 0          |   0.0 |  0.00
Output  | 0.026929   | 0.026929   | 0.026929   |   0.0 | 79.42
Modify  | 0          | 0          | 0          |   0.0 |  0.00
Other   |            | 0.001001   |            |       |  2.95

Nlocal:    192 ave 192 max 192 min
Histogram: 1 0 0 0 0 0 0 0 0 0
Nghost:    678 ave 678 max 678 min
Histogram: 1 0 0 0 0 0 0 0 0 0
Neighs:    0 ave 0 max 0 min
Histogram: 1 0 0 0 0 0 0 0 0 0
FullNghs:  5824 ave 5824 max 5824 min
Histogram: 1 0 0 0 0 0 0 0 0 0

Total # of neighbors = 5824
Ave neighs/atom = 30.3333
Neighbor list builds = 0
Dangerous builds = 0

jump            in.lj.for loop
#loop ends
Total wall time: 0:00:16
