192
Atoms. Timestep: 0
1 -1.4284 -1.4284 -4.2852
1 -1.4284 1.2858 -1.571
1 1.2858 -1.4284 -1.571
1 1.2858 1.2858 -4.2852
1 -0.0713 -0.0713 -2.9281
1 -0.0713 2.6429 -0.2139
1 2.6429 -0.0713 -0.2139
1 2.6429 2.6429 -2.9281
1 4 -1.4284 -4.2852
1 4 1.2858 -1.571
1 6.7142 -1.4284 -1.571
1 6.7142 1.2858 -4.2852
1 5.3571 -0.0713 -2.9281
1 5.3571 2.6429 -0.2139
1 8.0713 -0.0713 -0.2139
1 8.0713 2.6429 -2.9281
1 -1.4284 4 -4.2852
1 -1.4284 6.7142 -1.571
1 1.2858 4 -1.571
1 1.2858 6.7142 -4.2852
1 -0.0713 5.3571 -2.9281
1 -0.0713 8.0713 -0.2139
1 2.6429 5.3571 -0.2139
1 2.6429 8.0713 -2.9281
1 4 4 -4.2852
1 4 6.7142 -1.571
1 6.7142 4 -1.571
1 6.7142 6.7142 -4.2852
1 5.3571 5.3571 -2.9281
1 5.3571 8.0713 -0.2139
1 8.0713 5.3571 -0.2139
1 8.0713 8.0713 -2.9281
1 -1.4284 -1.4284 1.1432
1 -1.4284 1.2858 3.8574
1 1.2858 -1.4284 3.8574
1 1.2858 1.2858 1.1432
1 -0.0713 -0.0713 2.5003
1 -0.0713 2.6429 5.2145
1 2.6429 -0.0713 5.2145
1 2.6429 2.6429 2.5003
1 4 -1.4284 1.1432
1 4 1.2858 3.8574
1 6.7142 -1.4284 3.8574
1 6.7142 1.2858 1.1432
1 5.3571 -0.0713 2.5003
1 5.3571 2.6429 5.2145
1 8.0713 -0.0713 5.2145
1 8.0713 2.6429 2.5003
1 -1.4284 4 1.1432
1 -1.4284 6.7142 3.8574
1 1.2858 4 3.8574
1 1.2858 6.7142 1.1432
1 -0.0713 5.3571 2.5003
1 -0.0713 8.0713 5.2145
1 2.6429 5.3571 5.2145
1 2.6429 8.0713 2.5003
1 4 4 1.1432
1 4 6.7142 3.8574
1 6.7142 4 3.8574
1 6.7142 6.7142 1.1432
1 5.3571 5.3571 2.5003
1 5.3571 8.0713 5.2145
1 8.0713 5.3571 5.2145
1 8.0713 8.0713 2.5003
1 -1.4284 -1.4284 6.5716
1 -1.4284 1.2858 9.2858
1 1.2858 -1.4284 9.2858
1 1.2858 1.2858 6.5716
1 -0.0713 -0.0713 7.9287
1 -0.0713 2.6429 10.6429
1 2.6429 -0.0713 10.6429
1 2.6429 2.6429 7.9287
1 4 -1.4284 6.5716
1 4 1.2858 9.2858
1 6.7142 -1.4284 9.2858
1 6.7142 1.2858 6.5716
1 5.3571 -0.0713 7.9287
1 5.3571 2.6429 10.6429
1 8.0713 -0.0713 10.6429
1 8.0713 2.6429 7.9287
1 -1.4284 4 6.5716
1 -1.4284 6.7142 9.2858
1 1.2858 4 9.2858
1 1.2858 6.7142 6.5716
1 -0.0713 5.3571 7.9287
1 -0.0713 8.0713 10.6429
1 2.6429 5.3571 10.6429
1 2.6429 8.0713 7.9287
1 4 4 6.5716
1 4 6.7142 9.2858
1 6.7142 4 9.2858
1 6.7142 6.7142 6.5716
1 5.3571 5.3571 7.9287
1 5.3571 8.0713 10.6429
1 8.0713 5.3571 10.6429
1 8.0713 8.0713 7.9287
1 -1.4284 -1.4284 12
1 -1.4284 1.2858 14.7142
1 1.2858 -1.4284 14.7142
1 1.2858 1.2858 12
1 -0.0713 -0.0713 13.3571
1 -0.0713 2.6429 16.0713
1 2.6429 -0.0713 16.0713
1 2.6429 2.6429 13.3571
1 4 -1.4284 12
1 4 1.2858 14.7142
1 6.7142 -1.4284 14.7142
1 6.7142 1.2858 12
1 5.3571 -0.0713 13.3571
1 5.3571 2.6429 16.0713
1 8.0713 -0.0713 16.0713
1 8.0713 2.6429 13.3571
1 -1.4284 4 12
1 -1.4284 6.7142 14.7142
1 1.2858 4 14.7142
1 1.2858 6.7142 12
1 -0.0713 5.3571 13.3571
1 -0.0713 8.0713 16.0713
1 2.6429 5.3571 16.0713
1 2.6429 8.0713 13.3571
1 4 4 12
1 4 6.7142 14.7142
1 6.7142 4 14.7142
1 6.7142 6.7142 12
1 5.3571 5.3571 13.3571
1 5.3571 8.0713 16.0713
1 8.0713 5.3571 16.0713
1 8.0713 8.0713 13.3571
1 -1.4284 -1.4284 17.4284
1 -1.4284 1.2858 20.1426
1 1.2858 -1.4284 20.1426
1 1.2858 1.2858 17.4284
1 -0.0713 -0.0713 18.7855
1 -0.0713 2.6429 21.4997
1 2.6429 -0.0713 21.4997
1 2.6429 2.6429 18.7855
1 4 -1.4284 17.4284
1 4 1.2858 20.1426
1 6.7142 -1.4284 20.1426
1 6.7142 1.2858 17.4284
1 5.3571 -0.0713 18.7855
1 5.3571 2.6429 21.4997
1 8.0713 -0.0713 21.4997
1 8.0713 2.6429 18.7855
1 -1.4284 4 17.4284
1 -1.4284 6.7142 20.1426
1 1.2858 4 20.1426
1 1.2858 6.7142 17.4284
1 -0.0713 5.3571 18.7855
1 -0.0713 8.0713 21.4997
1 2.6429 5.3571 21.4997
1 2.6429 8.0713 18.7855
1 4 4 17.4284
1 4 6.7142 20.1426
1 6.7142 4 20.1426
1 6.7142 6.7142 17.4284
1 5.3571 5.3571 18.7855
1 5.3571 8.0713 21.4997
1 8.0713 5.3571 21.4997
1 8.0713 8.0713 18.7855
1 -1.4284 -1.4284 22.8568
1 -1.4284 1.2858 25.571
1 1.2858 -1.4284 25.571
1 1.2858 1.2858 22.8568
1 -0.0713 -0.0713 24.2139
1 -0.0713 2.6429 26.9281
1 2.6429 -0.0713 26.9281
1 2.6429 2.6429 24.2139
1 4 -1.4284 22.8568
1 4 1.2858 25.571
1 6.7142 -1.4284 25.571
1 6.7142 1.2858 22.8568
1 5.3571 -0.0713 24.2139
1 5.3571 2.6429 26.9281
1 8.0713 -0.0713 26.9281
1 8.0713 2.6429 24.2139
1 -1.4284 4 22.8568
1 -1.4284 6.7142 25.571
1 1.2858 4 25.571
1 1.2858 6.7142 22.8568
1 -0.0713 5.3571 24.2139
1 -0.0713 8.0713 26.9281
1 2.6429 5.3571 26.9281
1 2.6429 8.0713 24.2139
1 4 4 22.8568
1 4 6.7142 25.571
1 6.7142 4 25.571
1 6.7142 6.7142 22.8568
1 5.3571 5.3571 24.2139
1 5.3571 8.0713 26.9281
1 8.0713 5.3571 26.9281
1 8.0713 8.0713 24.2139
192
Atoms. Timestep: 10
1 -1.43289 -1.43289 -4.29868
1 -1.43289 1.28355 -1.58223
1 1.28355 -1.43289 -1.58223
1 1.28355 1.28355 -4.29868
1 -0.0746699 -0.0746699 -2.94046
1 -0.0746699 2.64178 -0.22401
1 2.64178 -0.0746699 -0.22401
1 2.64178 2.64178 -2.94046
1 4 -1.43289 -4.29868
1 4 1.28355 -1.58223
1 6.71645 -1.43289 -1.58223
1 6.71645 1.28355 -4.29868
1 5.35822 -0.0746699 -2.94046
1 5.35822 2.64178 -0.22401
1 8.07467 -0.0746699 -0.22401
1 8.07467 2.64178 -2.94046
1 -1.43289 4 -4.29868
1 -1.43289 6.71645 -1.58223
1 1.28355 4 -1.58223
1 1.28355 6.71645 -4.29868
1 -0.0746699 5.35822 -2.94046
1 -0.0746699 8.07467 -0.22401
1 2.64178 5.35822 -0.22401
1 2.64178 8.07467 -2.94046
1 4 4 -4.29868
1 4 6.71645 -1.58223
1 6.71645 4 -1.58223
1 6.71645 6.71645 -4.29868
1 5.35822 5.35822 -2.94046
1 5.35822 8.07467 -0.22401
1 8.07467 5.35822 -0.22401
1 8.07467 8.07467 -2.94046
1 -1.43289 -1.43289 1.13421
1 -1.43289 1.28355 3.85066
1 1.28355 -1.43289 3.85066
1 1.28355 1.28355 1.13421
1 -0.0746699 -0.0746699 2.49244
1 -0.0746699 2.64178 5.20888
1 2.64178 -0.0746699 5.20888
1 2.64178 2.64178 2.49244
1 4 -1.43289 1.13421
1 4 1.28355 3.85066
1 6.71645 -1.43289 3.85066
1 6.71645 1.28355 1.13421
1 5.35822 -0.0746699 2.49244
1 5.35822 2.64178 5.20888
1 8.07467 -0.0746699 5.20888
1 8.07467 2.64178 2.49244
1 -1.43289 4 1.13421
1 -1.43289 6.71645 3.85066
1 1.28355 4 3.85066
1 1.28355 6.71645 1.13421
1 -0.0746699 5.35822 2.49244
1 -0.0746699 8.07467 5.20888
1 2.64178 5.35822 5.20888
1 2.64178 8.07467 2.49244
1 4 4 1.13421
1 4 6.71645 3.85066
1 6.71645 4 3.85066
1 6.71645 6.71645 1.13421
1 5.35822 5.35822 2.49244
1 5.35822 8.07467 5.20888
1 8.07467 5.35822 5.20888
1 8.07467 8.07467 2.49244
1 -1.43289 -1.43289 6.56711
1 -1.43289 1.28355 9.28355
1 1.28355 -1.43289 9.28355
1 1.28355 1.28355 6.56711
1 -0.0746699 -0.0746699 7.92533
1 -0.0746699 2.64178 10.6418
1 2.64178 -0.0746699 10.6418
1 2.64178 2.64178 7.92533
1 4 -1.43289 6.56711
1 4 1.28355 9.28355
1 6.71645 -1.43289 9.28355
1 6.71645 1.28355 6.56711
1 5.35822 -0.0746699 7.92533
1 5.35822 2.64178 10.6418
1 8.07467 -0.0746699 10.6418
1 8.07467 2.64178 7.92533
1 -1.43289 4 6.56711
1 -1.43289 6.71645 9.28355
1 1.28355 4 9.28355
1 1.28355 6.71645 6.56711
1 -0.0746699 5.35822 7.92533
1 -0.0746699 8.07467 10.6418
1 2.64178 5.35822 10.6418
1 2.64178 8.07467 7.92533
1 4 4 6.56711
1 4 6.71645 9.28355
1 6.71645 4 9.28355
1 6.71645 6.71645 6.56711
1 5.35822 5.35822 7.92533
1 5.35822 8.07467 10.6418
1 8.07467 5.35822 10.6418
1 8.07467 8.07467 7.92533
1 -1.43289 -1.43289 12
1 -1.43289 1.28355 14.7164
1 1.28355 -1.43289 14.7164
1 1.28355 1.28355 12
1 -0.0746699 -0.0746699 13.3582
1 -0.0746699 2.64178 16.0747
1 2.64178 -0.0746699 16.0747
1 2.64178 2.64178 13.3582
1 4 -1.43289 12
1 4 1.28355 14.7164
1 6.71645 -1.43289 14.7164
1 6.71645 1.28355 12
1 5.35822 -0.0746699 13.3582
1 5.35822 2.64178 16.0747
1 8.07467 -0.0746699 16.0747
1 8.07467 2.64178 13.3582
1 -1.43289 4 12
1 -1.43289 6.71645 14.7164
1 1.28355 4 14.7164
1 1.28355 6.71645 12
1 -0.0746699 5.35822 13.3582
1 -0.0746699 8.07467 16.0747
1 2.64178 5.35822 16.0747
1 2.64178 8.07467 13.3582
1 4 4 12
1 4 6.71645 14.7164
1 6.71645 4 14.7164
1 6.71645 6.71645 12
1 5.35822 5.35822 13.3582
1 5.35822 8.07467 16.0747
1 8.07467 5.35822 16.0747
1 8.07467 8.07467 13.3582
1 -1.43289 -1.43289 17.4329
1 -1.43289 1.28355 20.1493
1 1.28355 -1.43289 20.1493
1 1.28355 1.28355 17.4329
1 -0.0746699 -0.0746699 18.7911
1 -0.0746699 2.64178 21.5076
1 2.64178 -0.0746699 21.5076
1 2.64178 2.64178 18.7911
1 4 -1.43289 17.4329
1 4 1.28355 20.1493
1 6.71645 -1.43289 20.1493
1 6.71645 1.28355 17.4329
1 5.35822 -0.0746699 18.7911
1 5.35822 2.64178 21.5076
1 8.07467 -0.0746699 21.5076
1 8.07467 2.64178 18.7911
1 -1.43289 4 17.4329
1 -1.43289 6.71645 20.1493
1 1.28355 4 20.1493
1 1.28355 6.71645 17.4329
1 -0.0746699 5.35822 18.7911
1 -0.0746699 8.07467 21.5076
1 2.64178 5.35822 21.5076
1 2.64178 8.07467 18.7911
1 4 4 17.4329
1 4 6.71645 20.1493
1 6.71645 4 20.1493
1 6.71645 6.71645 17.4329
1 5.35822 5.35822 18.7911
1 5.35822 8.07467 21.5076
1 8.07467 5.35822 21.5076
1 8.07467 8.07467 18.7911
1 -1.43289 -1.43289 22.8658
1 -1.43289 1.28355 25.5822
1 1.28355 -1.43289 25.5822
1 1.28355 1.28355 22.8658
1 -0.0746699 -0.0746699 24.224
1 -0.0746699 2.64178 26.9405
1 2.64178 -0.0746699 26.9405
1 2.64178 2.64178 24.224
1 4 -1.43289 22.8658
1 4 1.28355 25.5822
1 6.71645 -1.43289 25.5822
1 6.71645 1.28355 22.8658
1 5.35822 -0.0746699 24.224
1 5.35822 2.64178 26.9405
1 8.07467 -0.0746699 26.9405
1 8.07467 2.64178 24.224
1 -1.43289 4 22.8658
1 -1.43289 6.71645 25.5822
1 1.28355 4 25.5822
1 1.28355 6.71645 22.8658
1 -0.0746699 5.35822 24.224
1 -0.0746699 8.07467 26.9405
1 2.64178 5.35822 26.9405
1 2.64178 8.07467 24.224
1 4 4 22.8658
1 4 6.71645 25.5822
1 6.71645 4 25.5822
1 6.71645 6.71645 22.8658
1 5.35822 5.35822 24.224
1 5.35822 8.07467 26.9405
1 8.07467 5.35822 26.9405
1 8.07467 8.07467 24.224
192
Atoms. Timestep: 20
1 -1.43055 -1.43055 -4.29166
1 -1.43055 1.28472 -1.57639
1 1.28472 -1.43055 -1.57639
1 1.28472 1.28472 -4.29166
1 -0.0729156 -0.0729156 -2.93402
1 -0.0729156 2.64236 -0.218747
1 2.64236 -0.0729156 -0.218747
1 2.64236 2.64236 -2.93402
1 4 -1.43055 -4.29166
1 4 1.28472 -1.57639
1 6.71528 -1.43055 -1.57639
1 6.71528 1.28472 -4.29166
1 5.35764 -0.0729156 -2.93402
1 5.35764 2.64236 -0.218747
1 8.07292 -0.0729156 -0.218747
1 8.07292 2.64236 -2.93402
1 -1.43055 4 -4.29166
1 -1.43055 6.71528 -1.57639
1 1.28472 4 -1.57639
1 1.28472 6.71528 -4.29166
1 -0.0729156 5.35764 -2.93402
1 -0.0729156 8.07292 -0.218747
1 2.64236 5.35764 -0.218747
1 2.64236 8.07292 -2.93402
1 4 4 -4.29166
1 4 6.71528 -1.57639
1 6.71528 4 -1.57639
1 6.71528 6.71528 -4.29166
1 5.35764 5.35764 -2.93402
1 5.35764 8.07292 -0.218747
1 8.07292 5.35764 -0.218747
1 8.07292 8.07292 -2.93402
1 -1.43055 -1.43055 1.13889
1 -1.43055 1.28472 3.85417
1 1.28472 -1.43055 3.85417
1 1.28472 1.28472 1.13889
1 -0.0729156 -0.0729156 2.49653
1 -0.0729156 2.64236 5.21181
1 2.64236 -0.0729156 5.21181
1 2.64236 2.64236 2.49653
1 4 -1.43055 1.13889
1 4 1.28472 3.85417
1 6.71528 -1.43055 3.85417
1 6.71528 1.28472 1.13889
1 5.35764 -0.0729156 2.49653
1 5.35764 2.64236 5.21181
1 8.07292 -0.0729156 5.21181
1 8.07292 2.64236 2.49653
1 -1.43055 4 1.13889
1 -1.43055 6.71528 3.85417
1 1.28472 4 3.85417
1 1.28472 6.71528 1.13889
1 -0.0729156 5.35764 2.49653
1 -0.0729156 8.07292 5.21181
1 2.64236 5.35764 5.21181
1 2.64236 8.07292 2.49653
1 4 4 1.13889
1 4 6.71528 3.85417
1 6.71528 4 3.85417
1 6.71528 6.71528 1.13889
1 5.35764 5.35764 2.49653
1 5.35764 8.07292 5.21181
1 8.07292 5.35764 5.21181
1 8.07292 8.07292 2.49653
1 -1.43055 -1.43055 6.56945
1 -1.43055 1.28472 9.28472
1 1.28472 -1.43055 9.28472
1 1.28472 1.28472 6.56945
1 -0.0729156 -0.0729156 7.92708
1 -0.0729156 2.64236 10.6424
1 2.64236 -0.0729156 10.6424
1 2.64236 2.64236 7.92708
1 4 -1.43055 6.56945
1 4 1.28472 9.28472
1 6.71528 -1.43055 9.28472
1 6.71528 1.28472 6.56945
1 5.35764 -0.0729156 7.92708
1 5.35764 2.64236 10.6424
1 8.07292 -0.0729156 10.6424
1 8.07292 2.64236 7.92708
1 -1.43055 4 6.56945
1 -1.43055 6.71528 9.28472
1 1.28472 4 9.28472
1 1.28472 6.71528 6.56945
1 -0.0729156 5.35764 7.92708
1 -0.0729156 8.07292 10.6424
1 2.64236 5.35764 10.6424
1 2.64236 8.07292 7.92708
1 4 4 6.56945
1 4 6.71528 9.28472
1 6.71528 4 9.28472
1 6.71528 6.71528 6.56945
1 5.35764 5.35764 7.92708
1 5.35764 8.07292 10.6424
1 8.07292 5.35764 10.6424
1 8.07292 8.07292 7.92708
1 -1.43055 -1.43055 12
1 -1.43055 1.28472 14.7153
1 1.28472 -1.43055 14.7153
1 1.28472 1.28472 12
1 -0.0729156 -0.0729156 13.3576
1 -0.0729156 2.64236 16.0729
1 2.64236 -0.0729156 16.0729
1 2.64236 2.64236 13.3576
1 4 -1.43055 12
1 4 1.28472 14.7153
1 6.71528 -1.43055 14.7153
1 6.71528 1.28472 12
1 5.35764 -0.0729156 13.3576
1 5.35764 2.64236 16.0729
1 8.07292 -0.0729156 16.0729
1 8.07292 2.64236 13.3576
1 -1.43055 4 12
1 -1.43055 6.71528 14.7153
1 1.28472 4 14.7153
1 1.28472 6.71528 12
1 -0.0729156 5.35764 13.3576
1 -0.0729156 8.07292 16.0729
1 2.64236 5.35764 16.0729
1 2.64236 8.07292 13.3576
1 4 4 12
1 4 6.71528 14.7153
1 6.71528 4 14.7153
1 6.71528 6.71528 12
1 5.35764 5.35764 13.3576
1 5.35764 8.07292 16.0729
1 8.07292 5.35764 16.0729
1 8.07292 8.07292 13.3576
1 -1.43055 -1.43055 17.4306
1 -1.43055 1.28472 20.1458
1 1.28472 -1.43055 20.1458
1 1.28472 1.28472 17.4306
1 -0.0729156 -0.0729156 18.7882
1 -0.0729156 2.64236 21.5035
1 2.64236 -0.0729156 21.5035
1 2.64236 2.64236 18.7882
1 4 -1.43055 17.4306
1 4 1.28472 20.1458
1 6.71528 -1.43055 20.1458
1 6.71528 1.28472 17.4306
1 5.35764 -0.0729156 18.7882
1 5.35764 2.64236 21.5035
1 8.07292 -0.0729156 21.5035
1 8.07292 2.64236 18.7882
1 -1.43055 4 17.4306
1 -1.43055 6.71528 20.1458
1 1.28472 4 20.1458
1 1.28472 6.71528 17.4306
1 -0.0729156 5.35764 18.7882
1 -0.0729156 8.07292 21.5035
1 2.64236 5.35764 21.5035
1 2.64236 8.07292 18.7882
1 4 4 17.4306
1 4 6.71528 20.1458
1 6.71528 4 20.1458
1 6.71528 6.71528 17.4306
1 5.35764 5.35764 18.7882
1 5.35764 8.07292 21.5035
1 8.07292 5.35764 21.5035
1 8.07292 8.07292 18.7882
1 -1.43055 -1.43055 22.8611
1 -1.43055 1.28472 25.5764
1 1.28472 -1.43055 25.5764
1 1.28472 1.28472 22.8611
1 -0.0729156 -0.0729156 24.2187
1 -0.0729156 2.64236 26.934
1 2.64236 -0.0729156 26.934
1 2.64236 2.64236 24.2187
1 4 -1.43055 22.8611
1 4 1.28472 25.5764
1 6.71528 -1.43055 25.5764
1 6.71528 1.28472 22.8611
1 5.35764 -0.0729156 24.2187
1 5.35764 2.64236 26.934
1 8.07292 -0.0729156 26.934
1 8.07292 2.64236 24.2187
1 -1.43055 4 22.8611
1 -1.43055 6.71528 25.5764
1 1.28472 4 25.5764
1 1.28472 6.71528 22.8611
1 -0.0729156 5.35764 24.2187
1 -0.0729156 8.07292 26.934
1 2.64236 5.35764 26.934
1 2.64236 8.07292 24.2187
1 4 4 22.8611
1 4 6.71528 25.5764
1 6.71528 4 25.5764
1 6.71528 6.71528 22.8611
1 5.35764 5.35764 24.2187
1 5.35764 8.07292 26.934
1 8.07292 5.35764 26.934
1 8.07292 8.07292 24.2187
192
Atoms. Timestep: 30
1 -1.42958 -1.42958 -4.28875
1 -1.42958 1.28521 -1.57396
1 1.28521 -1.42958 -1.57396
1 1.28521 1.28521 -4.28875
1 -0.0721867 -0.0721867 -2.93135
1 -0.0721867 2.6426 -0.21656
1 2.6426 -0.0721867 -0.21656
1 2.6426 2.6426 -2.93135
1 4 -1.42958 -4.28875
1 4 1.28521 -1.57396
1 6.71479 -1.42958 -1.57396
1 6.71479 1.28521 -4.28875
1 5.3574 -0.0721867 -2.93135
1 5.3574 2.6426 -0.21656
1 8.07219 -0.0721867 -0.21656
1 8.07219 2.6426 -2.93135
1 -1.42958 4 -4.28875
1 -1.42958 6.71479 -1.57396
1 1.28521 4 -1.57396
1 1.28521 6.71479 -4.28875
1 -0.0721867 5.3574 -2.93135
1 -0.0721867 8.07219 -0.21656
1 2.6426 5.3574 -0.21656
1 2.6426 8.07219 -2.93135
1 4 4 -4.28875
1 4 6.71479 -1.57396
1 6.71479 4 -1.57396
1 6.71479 6.71479 -4.28875
1 5.3574 5.3574 -2.93135
1 5.3574 8.07219 -0.21656
1 8.07219 5.3574 -0.21656
1 8.07219 8.07219 -2.93135
1 -1.42958 -1.42958 1.14084
1 -1.42958 1.28521 3.85563
1 1.28521 -1.42958 3.85563
1 1.28521 1.28521 1.14084
1 -0.0721867 -0.0721867 2.49823
1 -0.0721867 2.6426 5.21302
1 2.6426 -0.0721867 5.21302
1 2.6426 2.6426 2.49823
1 4 -1.42958 1.14084
1 4 1.28521 3.85563
1 6.71479 -1.42958 3.85563
1 6.71479 1.28521 1.14084
1 5.3574 -0.0721867 2.49823
1 5.3574 2.6426 5.21302
1 8.07219 -0.0721867 5.21302
1 8.07219 2.6426 2.49823
1 -1.42958 4 1.14084
1 -1.42958 6.71479 3.85563
1 1.28521 4 3.85563
1 1.28521 6.71479 1.14084
1 -0.0721867 5.3574 2.49823
1 -0.0721867 8.07219 5.21302
1 2.6426 5.3574 5.21302
1 2.6426 8.07219 2.49823
1 4 4 1.14084
1 4 6.71479 3.85563
1 6.71479 4 3.85563
1 6.71479 6.71479 1.14084
1 5.3574 5.3574 2.49823
1 5.3574 8.07219 5.21302
1 8.07219 5.3574 5.21302
1 8.07219 8.07219 2.49823
1 -1.42958 -1.42958 6.57042
1 -1.42958 1.28521 9.28521
1 1.28521 -1.42958 9.28521
1 1.28521 1.28521 6.57042
1 -0.0721867 -0.0721867 7.92781
1 -0.0721867 2.6426 10.6426
1 2.6426 -0.0721867 10.6426
1 2.6426 2.6426 7.92781
1 4 -1.42958 6.57042
1 4 1.28521 9.28521
1 6.71479 -1.42958 9.28521
1 6.71479 1.28521 6.57042
1 5.3574 -0.0721867 7.92781
1 5.3574 2.6426 10.6426
1 8.07219 -0.0721867 10.6426
1 8.07219 2.6426 7.92781
1 -1.42958 4 6.57042
1 -1.42958 6.71479 9.28521
1 1.28521 4 9.28521
1 1.28521 6.71479 6.57042
1 -0.0721867 5.3574 7.92781
1 -0.0721867 8.07219 10.6426
1 2.6426 5.3574 10.6426
1 2.6426 8.07219 7.92781
1 4 4 6.57042
1 4 6.71479 9.28521
1 6.71479 4 9.28521
1 6.71479 6.71479 6.57042
1 5.3574 5.3574 7.92781
1 5.3574 8.07219 10.6426
1 8.07219 5.3574 10.6426
1 8.07219 8.07219 7.92781
1 -1.42958 -1.42958 12
1 -1.42958 1.28521 14.7148
1 1.28521 -1.42958 14.7148
1 1.28521 1.28521 12
1 -0.0721867 -0.0721867 13.3574
1 -0.0721867 2.6426 16.0722
1 2.6426 -0.0721867 16.0722
1 2.6426 2.6426 13.3574
1 4 -1.42958 12
1 4 1.28521 14.7148
1 6.71479 -1.42958 14.7148
1 6.71479 1.28521 12
1 5.3574 -0.0721867 13.3574
1 5.3574 2.6426 16.0722
1 8.07219 -0.0721867 16.0722
1 8.07219 2.6426 13.3574
1 -1.42958 4 12
1 -1.42958 6.71479 14.7148
1 1.28521 4 14.7148
1 1.28521 6.71479 12
1 -0.0721867 5.3574 13.3574
1 -0.0721867 8.07219 16.0722
1 2.6426 5.3574 16.0722
1 2.6426 8.07219 13.3574
1 4 4 12
1 4 6.71479 14.7148
1 6.71479 4 14.7148
1 6.71479 6.71479 12
1 5.3574 5.3574 13.3574
1 5.3574 8.07219 16.0722
1 8.07219 5.3574 16.0722
1 8.07219 8.07219 13.3574
1 -1.42958 -1.42958 17.4296
1 -1.42958 1.28521 20.1444
1 1.28521 -1.42958 20.1444
1 1.28521 1.28521 17.4296
1 -0.0721867 -0.0721867 18.787
1 -0.0721867 2.6426 21.5018
1 2.6426 -0.0721867 21.5018
1 2.6426 2.6426 18.787
1 4 -1.42958 17.4296
1 4 1.28521 20.1444
1 6.71479 -1.42958 20.1444
1 6.71479 1.28521 17.4296
1 5.3574 -0.0721867 18.787
1 5.3574 2.6426 21.5018
1 8.07219 -0.0721867 21.5018
1 8.07219 2.6426 18.787
1 -1.42958 4 17.4296
1 -1.42958 6.71479 20.1444
1 1.28521 4 20.1444
1 1.28521 6.71479 17.4296
1 -0.0721867 5.3574 18.787
1 -0.0721867 8.07219 21.5018
1 2.6426 5.3574 21.5018
1 2.6426 8.07219 18.787
1 4 4 17.4296
1 4 6.71479 20.1444
1 6.71479 4 20.1444
1 6.71479 6.71479 17.4296
1 5.3574 5.3574 18.787
1 5.3574 8.07219 21.5018
1 8.07219 5.3574 21.5018
1 8.07219 8.07219 18.787
1 -1.42958 -1.42958 22.8592
1 -1.42958 1.28521 25.574
1 1.28521 -1.42958 25.574
1 1.28521 1.28521 22.8592
1 -0.0721867 -0.0721867 24.2166
1 -0.0721867 2.6426 26.9314
1 2.6426 -0.0721867 26.9314
1 2.6426 2.6426 24.2166
1 4 -1.42958 22.8592
1 4 1.28521 25.574
1 6.71479 -1.42958 25.574
1 6.71479 1.28521 22.8592
1 5.3574 -0.0721867 24.2166
1 5.3574 2.6426 26.9314
1 8.07219 -0.0721867 26.9314
1 8.07219 2.6426 24.2166
1 -1.42958 4 22.8592
1 -1.42958 6.71479 25.574
1 1.28521 4 25.574
1 1.28521 6.71479 22.8592
1 -0.0721867 5.3574 24.2166
1 -0.0721867 8.07219 26.9314
1 2.6426 5.3574 26.9314
1 2.6426 8.07219 24.2166
1 4 4 22.8592
1 4 6.71479 25.574
1 6.71479 4 25.574
1 6.71479 6.71479 22.8592
1 5.3574 5.3574 24.2166
1 5.3574 8.07219 26.9314
1 8.07219 5.3574 26.9314
1 8.07219 8.07219 24.2166
192
Atoms. Timestep: 40
1 -1.43347 -1.43347 -4.30042
1 -1.43347 1.28326 -1.58368
1 1.28326 -1.43347 -1.58368
1 1.28326 1.28326 -4.30042
1 -0.0751049 -0.0751049 -2.94205
1 -0.0751049 2.64163 -0.225315
1 2.64163 -0.0751049 -0.225315
1 2.64163 2.64163 -2.94205
1 4 -1.43347 -4.30042
1 4 1.28326 -1.58368
1 6.71674 -1.43347 -1.58368
1 6.71674 1.28326 -4.30042
1 5.35837 -0.0751049 -2.94205
1 5.35837 2.64163 -0.225315
1 8.0751 -0.0751049 -0.225315
1 8.0751 2.64163 -2.94205
1 -1.43347 4 -4.30042
1 -1.43347 6.71674 -1.58368
1 1.28326 4 -1.58368
1 1.28326 6.71674 -4.30042
1 -0.0751049 5.35837 -2.94205
1 -0.0751049 8.0751 -0.225315
1 2.64163 5.35837 -0.225315
1 2.64163 8.0751 -2.94205
1 4 4 -4.30042
1 4 6.71674 -1.58368
1 6.71674 4 -1.58368
1 6.71674 6.71674 -4.30042
1 5.35837 5.35837 -2.94205
1 5.35837 8.0751 -0.225315
1 8.0751 5.35837 -0.225315
1 8.0751 8.0751 -2.94205
1 -1.43347 -1.43347 1.13305
1 -1.43347 1.28326 3.84979
1 1.28326 -1.43347 3.84979
1 1.28326 1.28326 1.13305
1 -0.0751049 -0.0751049 2.49142
1 -0.0751049 2.64163 5.20816
1 2.64163 -0.0751049 5.20816
1 2.64163 2.64163 2.49142
1 4 -1.43347 1.13305
1 4 1.28326 3.84979
1 6.71674 -1.43347 3.84979
1 6.71674 1.28326 1.13305
1 5.35837 -0.0751049 2.49142
1 5.35837 2.64163 5.20816
1 8.0751 -0.0751049 5.20816
1 8.0751 2.64163 2.49142
1 -1.43347 4 1.13305
1 -1.43347 6.71674 3.84979
1 1.28326 4 3.84979
1 1.28326 6.71674 1.13305
1 -0.0751049 5.35837 2.49142
1 -0.0751049 8.0751 5.20816
1 2.64163 5.35837 5.20816
1 2.64163 8.0751 2.49142
1 4 4 1.13305
1 4 6.71674 3.84979
1 6.71674 4 3.84979
1 6.71674 6.71674 1.13305
1 5.35837 5.35837 2.49142
1 5.35837 8.0751 5.20816
1 8.0751 5.35837 5.20816
1 8.0751 8.0751 2.49142
1 -1.43347 -1.43347 6.56653
1 -1.43347 1.28326 9.28326
1 1.28326 -1.43347 9.28326
1 1.28326 1.28326 6.56653
1 -0.0751049 -0.0751049 7.9249
1 -0.0751049 2.64163 10.6416
1 2.64163 -0.0751049 10.6416
1 2.64163 2.64163 7.9249
1 4 -1.43347 6.56653
1 4 1.28326 9.28326
1 6.71674 -1.43347 9.28326
1 6.71674 1.28326 6.56653
1 5.35837 -0.0751049 7.9249
1 5.35837 2.64163 10.6416
1 8.0751 -0.0751049 10.6416
1 8.0751 2.64163 7.9249
1 -1.43347 4 6.56653
1 -1.43347 6.71674 9.28326
1 1.28326 4 9.28326
1 1.28326 6.71674 6.56653
1 -0.0751049 5.35837 7.9249
1 -0.0751049 8.0751 10.6416
1 2.64163 5.35837 10.6416
1 2.64163 8.0751 7.9249
1 4 4 6.56653
1 4 6.71674 9.28326
1 6.71674 4 9.28326
1 6.71674 6.71674 6.56653
1 5.35837 5.35837 7.9249
1 5.35837 8.0751 10.6416
1 8.0751 5.35837 10.6416
1 8.0751 8.0751 7.9249
1 -1.43347 -1.43347 12
1 -1.43347 1.28326 14.7167
1 1.28326 -1.43347 14.7167
1 1.28326 1.28326 12
1 -0.0751049 -0.0751049 13.3584
1 -0.0751049 2.64163 16.0751
1 2.64163 -0.0751049 16.0751
1 2.64163 2.64163 13.3584
1 4 -1.43347 12
1 4 1.28326 14.7167
1 6.71674 -1.43347 14.7167
1 6.71674 1.28326 12
1 5.35837 -0.0751049 13.3584
1 5.35837 2.64163 16.0751
1 8.0751 -0.0751049 16.0751
1 8.0751 2.64163 13.3584
1 -1.43347 4 12
1 -1.43347 6.71674 14.7167
1 1.28326 4 14.7167
1 1.28326 6.71674 12
1 -0.0751049 5.35837 13.3584
1 -0.0751049 8.0751 16.0751
1 2.64163 5.35837 16.0751
1 2.64163 8.0751 13.3584
1 4 4 12
1 4 6.71674 14.7167
1 6.71674 4 14.7167
1 6.71674 6.71674 12
1 5.35837 5.35837 13.3584
1 5.35837 8.0751 16.0751
1 8.0751 5.35837 16.0751
1 8.0751 8.0751 13.3584
1 -1.43347 -1.43347 17.4335
1 -1.43347 1.28326 20.1502
1 1.28326 -1.43347 20.1502
1 1.28326 1.28326 17.4335
1 -0.0751049 -0.0751049 18.7918
1 -0.0751049 2.64163 21.5086
1 2.64163 -0.0751049 21.5086
1 2.64163 2.64163 18.7918
1 4 -1.43347 17.4335
1 4 1.28326 20.1502
1 6.71674 -1.43347 20.1502
1 6.71674 1.28326 17.4335
1 5.35837 -0.0751049 18.7918
1 5.35837 2.64163 21.5086
1 8.0751 -0.0751049 21.5086
1 8.0751 2.64163 18.7918
1 -1.43347 4 17.4335
1 -1.43347 6.71674 20.1502
1 1.28326 4 20.1502
1 1.28326 6.71674 17.4335
1 -0.0751049 5.35837 18.7918
1 -0.0751049 8.0751 21.5086
1 2.64163 5.35837 21.5086
1 2.64163 8.0751 18.7918
1 4 4 17.4335
1 4 6.71674 20.1502
1 6.71674 4 20.1502
1 6.71674 6.71674 17.4335
1 5.35837 5.35837 18.7918
1 5.35837 8.0751 21.5086
1 8.0751 5.35837 21.5086
1 8.0751 8.0751 18.7918
1 -1.43347 -1.43347 22.8669
1 -1.43347 1.28326 25.5837
1 1.28326 -1.43347 25.5837
1 1.28326 1.28326 22.8669
1 -0.0751049 -0.0751049 24.2253
1 -0.0751049 2.64163 26.9421
1 2.64163 -0.0751049 26.9421
1 2.64163 2.64163 24.2253
1 4 -1.43347 22.8669
1 4 1.28326 25.5837
1 6.71674 -1.43347 25.5837
1 6.71674 1.28326 22.8669
1 5.35837 -0.0751049 24.2253
1 5.35837 2.64163 26.9421
1 8.0751 -0.0751049 26.9421
1 8.0751 2.64163 24.2253
1 -1.43347 4 22.8669
1 -1.43347 6.71674 25.5837
1 1.28326 4 25.5837
1 1.28326 6.71674 22.8669
1 -0.0751049 5.35837 24.2253
1 -0.0751049 8.0751 26.9421
1 2.64163 5.35837 26.9421
1 2.64163 8.0751 24.2253
1 4 4 22.8669
1 4 6.71674 25.5837
1 6.71674 4 25.5837
1 6.71674 6.71674 22.8669
1 5.35837 5.35837 24.2253
1 5.35837 8.0751 26.9421
1 8.0751 5.35837 26.9421
1 8.0751 8.0751 24.2253
192
Atoms. Timestep: 50
1 -1.42846 -1.42846 -4.28537
1 -1.42846 1.28577 -1.57114
1 1.28577 -1.42846 -1.57114
1 1.28577 1.28577 -4.28537
1 -0.0713426 -0.0713426 -2.92826
1 -0.0713426 2.64289 -0.214028
1 2.64289 -0.0713426 -0.214028
1 2.64289 2.64289 -2.92826
1 4 -1.42846 -4.28537
1 4 1.28577 -1.57114
1 6.71423 -1.42846 -1.57114
1 6.71423 1.28577 -4.28537
1 5.35711 -0.0713426 -2.92826
1 5.35711 2.64289 -0.214028
1 8.07134 -0.0713426 -0.214028
1 8.07134 2.64289 -2.92826
1 -1.42846 4 -4.28537
1 -1.42846 6.71423 -1.57114
1 1.28577 4 -1.57114
1 1.28577 6.71423 -4.28537
1 -0.0713426 5.35711 -2.92826
1 -0.0713426 8.07134 -0.214028
1 2.64289 5.35711 -0.214028
1 2.64289 8.07134 -2.92826
1 4 4 -4.28537
1 4 6.71423 -1.57114
1 6.71423 4 -1.57114
1 6.71423 6.71423 -4.28537
1 5.35711 5.35711 -2.92826
1 5.35711 8.07134 -0.214028
1 8.07134 5.35711 -0.214028
1 8.07134 8.07134 -2.92826
1 -1.42846 -1.42846 1.14309
1 -1.42846 1.28577 3.85731
1 1.28577 -1.42846 3.85731
1 1.28577 1.28577 1.14309
1 -0.0713426 -0.0713426 2.5002
1 -0.0713426 2.64289 5.21443
1 2.64289 -0.0713426 5.21443
1 2.64289 2.64289 2.5002
1 4 -1.42846 1.14309
1 4 1.28577 3.85731
1 6.71423 -1.42846 3.85731
1 6.71423 1.28577 1.14309
1 5.35711 -0.0713426 2.5002
1 5.35711 2.64289 5.21443
1 8.07134 -0.0713426 5.21443
1 8.07134 2.64289 2.5002
1 -1.42846 4 1.14309
1 -1.42846 6.71423 3.85731
1 1.28577 4 3.85731
1 1.28577 6.71423 1.14309
1 -0.0713426 5.35711 2.5002
1 -0.0713426 8.07134 5.21443
1 2.64289 5.35711 5.21443
1 2.64289 8.07134 2.5002
1 4 4 1.14309
1 4 6.71423 3.85731
1 6.71423 4 3.85731
1 6.71423 6.71423 1.14309
1 5.35711 5.35711 2.5002
1 5.35711 8.07134 5.21443
1 8.07134 5.35711 5.21443
1 8.07134 8.07134 2.5002
1 -1.42846 -1.42846 6.57154
1 -1.42846 1.28577 9.28577
1 1.28577 -1.42846 9.28577
1 1.28577 1.28577 6.57154
1 -0.0713426 -0.0713426 7.92866
1 -0.0713426 2.64289 10.6429
1 2.64289 -0.0713426 10.6429
1 2.64289 2.64289 7.92866
1 4 -1.42846 6.57154
1 4 1.28577 9.28577
1 6.71423 -1.42846 9.28577
1 6.71423 1.28577 6.57154
1 5.35711 -0.0713426 7.92866
1 5.35711 2.64289 10.6429
1 8.07134 -0.0713426 10.6429
1 8.07134 2.64289 7.92866
1 -1.42846 4 6.57154
1 -1.42846 6.71423 9.28577
1 1.28577 4 9.28577
1 1.28577 6.71423 6.57154
1 -0.0713426 5.35711 7.92866
1 -0.0713426 8.07134 10.6429
1 2.64289 5.35711 10.6429
1 2.64289 8.07134 7.92866
1 4 4 6.57154
1 4 6.71423 9.28577
1 6.71423 4 9.28577
1 6.71423 6.71423 6.57154
1 5.35711 5.35711 7.92866
1 5.35711 8.07134 10.6429
1 8.07134 5.35711 10.6429
1 8.07134 8.07134 7.92866
1 -1.42846 -1.42846 12
1 -1.42846 1.28577 14.7142
1 1.28577 -1.42846 14.7142
1 1.28577 1.28577 12
1 -0.0713426 -0.0713426 13.3571
1 -0.0713426 2.64289 16.0713
1 2.64289 -0.0713426 16.0713
1 2.64289 2.64289 13.3571
1 4 -1.42846 12
1 4 1.28577 14.7142
1 6.71423 -1.42846 14.7142
1 6.71423 1.28577 12
1 5.35711 -0.0713426 13.3571
1 5.35711 2.64289 16.0713
1 8.07134 -0.0713426 16.0713
1 8.07134 2.64289 13.3571
1 -1.42846 4 12
1 -1.42846 6.71423 14.7142
1 1.28577 4 14.7142
1 1.28577 6.71423 12
1 -0.0713426 5.35711 13.3571
1 -0.0713426 8.07134 16.0713
1 2.64289 5.35711 16.0713
1 2.64289 8.07134 13.3571
1 4 4 12
1 4 6.71423 14.7142
1 6.71423 4 14.7142
1 6.71423 6.71423 12
1 5.35711 5.35711 13.3571
1 5.35711 8.07134 16.0713
1 8.07134 5.35711 16.0713
1 8.07134 8.07134 13.3571
1 -1.42846 -1.42846 17.4285
1 -1.42846 1.28577 20.1427
1 1.28577 -1.42846 20.1427
1 1.28577 1.28577 17.4285
1 -0.0713426 -0.0713426 18.7856
1 -0.0713426 2.64289 21.4998
1 2.64289 -0.0713426 21.4998
1 2.64289 2.64289 18.7856
1 4 -1.42846 17.4285
1 4 1.28577 20.1427
1 6.71423 -1.42846 20.1427
1 6.71423 1.28577 17.4285
1 5.35711 -0.0713426 18.7856
1 5.35711 2.64289 21.4998
1 8.07134 -0.0713426 21.4998
1 8.07134 2.64289 18.7856
1 -1.42846 4 17.4285
1 -1.42846 6.71423 20.1427
1 1.28577 4 20.1427
1 1.28577 6.71423 17.4285
1 -0.0713426 5.35711 18.7856
1 -0.0713426 8.07134 21.4998
1 2.64289 5.35711 21.4998
1 2.64289 8.07134 18.7856
1 4 4 17.4285
1 4 6.71423 20.1427
1 6.71423 4 20.1427
1 6.71423 6.71423 17.4285
1 5.35711 5.35711 18.7856
1 5.35711 8.07134 21.4998
1 8.07134 5.35711 21.4998
1 8.07134 8.07134 18.7856
1 -1.42846 -1.42846 22.8569
1 -1.42846 1.28577 25.5711
1 1.28577 -1.42846 25.5711
1 1.28577 1.28577 22.8569
1 -0.0713426 -0.0713426 24.214
1 -0.0713426 2.64289 26.9283
1 2.64289 -0.0713426 26.9283
1 2.64289 2.64289 24.214
1 4 -1.42846 22.8569
1 4 1.28577 25.5711
1 6.71423 -1.42846 25.5711
1 6.71423 1.28577 22.8569
1 5.35711 -0.0713426 24.214
1 5.35711 2.64289 26.9283
1 8.07134 -0.0713426 26.9283
1 8.07134 2.64289 24.214
1 -1.42846 4 22.8569
1 -1.42846 6.71423 25.5711
1 1.28577 4 25.5711
1 1.28577 6.71423 22.8569
1 -0.0713426 5.35711 24.214
1 -0.0713426 8.07134 26.9283
1 2.64289 5.35711 26.9283
1 2.64289 8.07134 24.214
1 4 4 22.8569
1 4 6.71423 25.5711
1 6.71423 4 25.5711
1 6.71423 6.71423 22.8569
1 5.35711 5.35711 24.214
1 5.35711 8.07134 26.9283
1 8.07134 5.35711 26.9283
1 8.07134 8.07134 24.214
