192
Atoms. Timestep: 100
1 -1.42846 9.42846 5.72653e-17
1 9.42846 1.28577 0.00833333
1 1.28577 9.42846 0.00833333
1 1.28577 1.28577 1.0635e-16
1 -0.0713426 -0.0713426 0.00416667
1 -0.0713426 2.64289 0.0125
1 2.64289 -0.0713426 0.0125
1 2.64289 2.64289 0.00416667
1 4 9.42846 8.18076e-17
1 4 1.28577 0.00833333
1 6.71423 9.42846 0.00833333
1 6.71423 1.28577 8.99884e-17
1 5.35711 -0.0713426 0.00416667
1 5.35711 2.64289 0.0125
1 8.07134 -0.0713426 0.0125
1 8.07134 2.64289 0.00416667
1 9.42846 4 8.45346e-17
1 9.42846 6.71423 0.00833333
1 1.28577 4 0.00833333
1 1.28577 6.71423 7.36269e-17
1 -0.0713426 5.35711 0.00416667
1 -0.0713426 8.07134 0.0125
1 2.64289 5.35711 0.0125
1 2.64289 8.07134 0.00416667
1 4 4 8.18076e-17
1 4 6.71423 0.00833333
1 6.71423 4 0.00833333
1 6.71423 6.71423 3.545e-17
1 5.35711 5.35711 0.00416667
1 5.35711 8.07134 0.0125
1 8.07134 5.35711 0.0125
1 8.07134 8.07134 0.00416667
1 9.42846 9.42846 0.0166667
1 9.42846 1.28577 0.025
1 1.28577 9.42846 0.025
1 1.28577 1.28577 0.0166667
1 -0.0713426 -0.0713426 0.0208333
1 -0.0713426 2.64289 0.0291667
1 2.64289 -0.0713426 0.0291667
1 2.64289 2.64289 0.0208333
1 4 9.42846 0.0166667
1 4 1.28577 0.025
1 6.71423 9.42846 0.025
1 6.71423 1.28577 0.0166667
1 5.35711 -0.0713426 0.0208333
1 5.35711 2.64289 0.0291667
1 8.07134 -0.0713426 0.0291667
1 8.07134 2.64289 0.0208333
1 -1.42846 4 0.0166667
1 9.42846 6.71423 0.025
1 1.28577 4 0.025
1 1.28577 6.71423 0.0166667
1 -0.0713426 5.35711 0.0208333
1 -0.0713426 8.07134 0.0291667
1 2.64289 5.35711 0.0291667
1 2.64289 8.07134 0.0208333
1 4 4 0.0166667
1 4 6.71423 0.025
1 6.71423 4 0.025
1 6.71423 6.71423 0.0166667
1 5.35711 5.35711 0.0208333
1 5.35711 8.07134 0.0291667
1 8.07134 5.35711 0.0291667
1 8.07134 8.07134 0.0208333
1 9.42846 9.42846 0.0333333
1 9.42846 1.28577 0.0416667
1 1.28577 9.42846 0.0416667
1 1.28577 1.28577 0.0333333
1 -0.0713426 -0.0713426 0.0375
1 -0.0713426 2.64289 0.0458333
1 2.64289 -0.0713426 0.0458333
1 2.64289 2.64289 0.0375
1 4 9.42846 0.0333333
1 4 1.28577 0.0416667
1 6.71423 9.42846 0.0416667
1 6.71423 1.28577 0.0333333
1 5.35711 -0.0713426 0.0375
1 5.35711 2.64289 0.0458333
1 8.07134 -0.0713426 0.0458333
1 8.07134 2.64289 0.0375
1 9.42846 4 0.0333333
1 9.42846 6.71423 0.0416667
1 1.28577 4 0.0416667
1 1.28577 6.71423 0.0333333
1 -0.0713426 5.35711 0.0375
1 -0.0713426 8.07134 0.0458333
1 2.64289 5.35711 0.0458333
1 2.64289 8.07134 0.0375
1 4 4 0.0333333
1 4 6.71423 0.0416667
1 6.71423 4 0.0416667
1 6.71423 6.71423 0.0333333
1 5.35711 5.35711 0.0375
1 5.35711 8.07134 0.0458333
1 8.07134 5.35711 0.0458333
1 8.07134 8.07134 0.0375
1 9.42846 9.42846 0.05
1 9.42846 1.28577 0.0583333
1 1.28577 9.42846 0.0583333
1 1.28577 1.28577 0.05
1 -0.0713426 -0.0713426 0.0541667
1 -0.0713426 2.64289 0.0625
1 2.64289 -0.0713426 0.0625
1 2.64289 2.64289 0.0541667
1 4 9.42846 0.05
1 4 1.28577 0.0583333
1 6.71423 9.42846 0.0583333
1 6.71423 1.28577 0.05
1 5.35711 -0.0713426 0.0541667
1 5.35711 2.64289 0.0625
1 8.07134 -0.0713426 0.0625
1 8.07134 2.64289 0.0541667
1 9.42846 4 0.05
1 9.42846 6.71423 0.0583333
1 1.28577 4 0.0583333
1 1.28577 6.71423 0.05
1 -0.0713426 5.35711 0.0541667
1 -0.0713426 8.07134 0.0625
1 2.64289 5.35711 0.0625
1 2.64289 8.07134 0.0541667
1 4 4 0.05
1 4 6.71423 0.0583333
1 6.71423 4 0.0583333
1 6.71423 6.71423 0.05
1 5.35711 5.35711 0.0541667
1 5.35711 8.07134 0.0625
1 8.07134 5.35711 0.0625
1 8.07134 8.07134 0.0541667
1 9.42846 9.42846 0.0666667
1 -1.42846 1.28577 0.075
1 1.28577 -1.42846 0.075
1 1.28577 1.28577 0.0666667
1 -0.0713426 -0.0713426 0.0708333
1 -0.0713426 2.64289 0.0791667
1 2.64289 -0.0713426 0.0791667
1 2.64289 2.64289 0.0708333
1 4 9.42846 0.0666667
1 4 1.28577 0.075
1 6.71423 9.42846 0.075
1 6.71423 1.28577 0.0666667
1 5.35711 -0.0713426 0.0708333
1 5.35711 2.64289 0.0791667
1 8.07134 -0.0713426 0.0791667
1 8.07134 2.64289 0.0708333
1 -1.42846 4 0.0666667
1 9.42846 6.71423 0.075
1 1.28577 4 0.075
1 1.28577 6.71423 0.0666667
1 -0.0713426 5.35711 0.0708333
1 -0.0713426 8.07134 0.0791667
1 2.64289 5.35711 0.0791667
1 2.64289 8.07134 0.0708333
1 4 4 0.0666667
1 4 6.71423 0.075
1 6.71423 4 0.075
1 6.71423 6.71423 0.0666667
1 5.35711 5.35711 0.0708333
1 5.35711 8.07134 0.0791667
1 8.07134 5.35711 0.0791667
1 8.07134 8.07134 0.0708333
1 9.42846 9.42846 0.0833333
1 9.42846 1.28577 0.0916667
1 1.28577 9.42846 0.0916667
1 1.28577 1.28577 0.0833333
1 -0.0713426 -0.0713426 0.0875
1 -0.0713426 2.64289 0.0958333
1 2.64289 -0.0713426 0.0958333
1 2.64289 2.64289 0.0875
1 4 9.42846 0.0833333
1 4 1.28577 0.0916667
1 6.71423 9.42846 0.0916667
1 6.71423 1.28577 0.0833333
1 5.35711 -0.0713426 0.0875
1 5.35711 2.64289 0.0958333
1 8.07134 -0.0713426 0.0958333
1 8.07134 2.64289 0.0875
1 9.42846 4 0.0833333
1 9.42846 6.71423 0.0916667
1 1.28577 4 0.0916667
1 1.28577 6.71423 0.0833333
1 -0.0713426 5.35711 0.0875
1 -0.0713426 8.07134 0.0958333
1 2.64289 5.35711 0.0958333
1 2.64289 8.07134 0.0875
1 4 4 0.0833333
1 4 6.71423 0.0916667
1 6.71423 4 0.0916667
1 6.71423 6.71423 0.0833333
1 5.35711 5.35711 0.0875
1 5.35711 8.07134 0.0958333
1 8.07134 5.35711 0.0958333
1 8.07134 8.07134 0.0875
192
Atoms. Timestep: 200
1 -1.42846 9.42846 5.72653e-17
1 9.42846 1.28577 0.00833333
1 1.28577 9.42846 0.00833333
1 1.28577 1.28577 1.0635e-16
1 -0.0713426 -0.0713426 0.00416667
1 -0.0713426 2.64289 0.0125
1 2.64289 -0.0713426 0.0125
1 2.64289 2.64289 0.00416667
1 4 9.42846 8.18076e-17
1 4 1.28577 0.00833333
1 6.71423 9.42846 0.00833333
1 6.71423 1.28577 8.99884e-17
1 5.35711 -0.0713426 0.00416667
1 5.35711 2.64289 0.0125
1 8.07134 -0.0713426 0.0125
1 8.07134 2.64289 0.00416667
1 9.42846 4 8.45346e-17
1 9.42846 6.71423 0.00833333
1 1.28577 4 0.00833333
1 1.28577 6.71423 7.36269e-17
1 -0.0713426 5.35711 0.00416667
1 -0.0713426 8.07134 0.0125
1 2.64289 5.35711 0.0125
1 2.64289 8.07134 0.00416667
1 4 4 8.18076e-17
1 4 6.71423 0.00833333
1 6.71423 4 0.00833333
1 6.71423 6.71423 3.545e-17
1 5.35711 5.35711 0.00416667
1 5.35711 8.07134 0.0125
1 8.07134 5.35711 0.0125
1 8.07134 8.07134 0.00416667
1 9.42846 9.42846 0.0166667
1 9.42846 1.28577 0.025
1 1.28577 9.42846 0.025
1 1.28577 1.28577 0.0166667
1 -0.0713426 -0.0713426 0.0208333
1 -0.0713426 2.64289 0.0291667
1 2.64289 -0.0713426 0.0291667
1 2.64289 2.64289 0.0208333
1 4 9.42846 0.0166667
1 4 1.28577 0.025
1 6.71423 9.42846 0.025
1 6.71423 1.28577 0.0166667
1 5.35711 -0.0713426 0.0208333
1 5.35711 2.64289 0.0291667
1 8.07134 -0.0713426 0.0291667
1 8.07134 2.64289 0.0208333
1 -1.42846 4 0.0166667
1 9.42846 6.71423 0.025
1 1.28577 4 0.025
1 1.28577 6.71423 0.0166667
1 -0.0713426 5.35711 0.0208333
1 -0.0713426 8.07134 0.0291667
1 2.64289 5.35711 0.0291667
1 2.64289 8.07134 0.0208333
1 4 4 0.0166667
1 4 6.71423 0.025
1 6.71423 4 0.025
1 6.71423 6.71423 0.0166667
1 5.35711 5.35711 0.0208333
1 5.35711 8.07134 0.0291667
1 8.07134 5.35711 0.0291667
1 8.07134 8.07134 0.0208333
1 9.42846 9.42846 0.0333333
1 9.42846 1.28577 0.0416667
1 1.28577 9.42846 0.0416667
1 1.28577 1.28577 0.0333333
1 -0.0713426 -0.0713426 0.0375
1 -0.0713426 2.64289 0.0458333
1 2.64289 -0.0713426 0.0458333
1 2.64289 2.64289 0.0375
1 4 9.42846 0.0333333
1 4 1.28577 0.0416667
1 6.71423 9.42846 0.0416667
1 6.71423 1.28577 0.0333333
1 5.35711 -0.0713426 0.0375
1 5.35711 2.64289 0.0458333
1 8.07134 -0.0713426 0.0458333
1 8.07134 2.64289 0.0375
1 9.42846 4 0.0333333
1 9.42846 6.71423 0.0416667
1 1.28577 4 0.0416667
1 1.28577 6.71423 0.0333333
1 -0.0713426 5.35711 0.0375
1 -0.0713426 8.07134 0.0458333
1 2.64289 5.35711 0.0458333
1 2.64289 8.07134 0.0375
1 4 4 0.0333333
1 4 6.71423 0.0416667
1 6.71423 4 0.0416667
1 6.71423 6.71423 0.0333333
1 5.35711 5.35711 0.0375
1 5.35711 8.07134 0.0458333
1 8.07134 5.35711 0.0458333
1 8.07134 8.07134 0.0375
1 9.42846 9.42846 0.05
1 9.42846 1.28577 0.0583333
1 1.28577 9.42846 0.0583333
1 1.28577 1.28577 0.05
1 -0.0713426 -0.0713426 0.0541667
1 -0.0713426 2.64289 0.0625
1 2.64289 -0.0713426 0.0625
1 2.64289 2.64289 0.0541667
1 4 9.42846 0.05
1 4 1.28577 0.0583333
1 6.71423 9.42846 0.0583333
1 6.71423 1.28577 0.05
1 5.35711 -0.0713426 0.0541667
1 5.35711 2.64289 0.0625
1 8.07134 -0.0713426 0.0625
1 8.07134 2.64289 0.0541667
1 9.42846 4 0.05
1 9.42846 6.71423 0.0583333
1 1.28577 4 0.0583333
1 1.28577 6.71423 0.05
1 -0.0713426 5.35711 0.0541667
1 -0.0713426 8.07134 0.0625
1 2.64289 5.35711 0.0625
1 2.64289 8.07134 0.0541667
1 4 4 0.05
1 4 6.71423 0.0583333
1 6.71423 4 0.0583333
1 6.71423 6.71423 0.05
1 5.35711 5.35711 0.0541667
1 5.35711 8.07134 0.0625
1 8.07134 5.35711 0.0625
1 8.07134 8.07134 0.0541667
1 9.42846 9.42846 0.0666667
1 -1.42846 1.28577 0.075
1 1.28577 -1.42846 0.075
1 1.28577 1.28577 0.0666667
1 -0.0713426 -0.0713426 0.0708333
1 -0.0713426 2.64289 0.0791667
1 2.64289 -0.0713426 0.0791667
1 2.64289 2.64289 0.0708333
1 4 9.42846 0.0666667
1 4 1.28577 0.075
1 6.71423 9.42846 0.075
1 6.71423 1.28577 0.0666667
1 5.35711 -0.0713426 0.0708333
1 5.35711 2.64289 0.0791667
1 8.07134 -0.0713426 0.0791667
1 8.07134 2.64289 0.0708333
1 -1.42846 4 0.0666667
1 9.42846 6.71423 0.075
1 1.28577 4 0.075
1 1.28577 6.71423 0.0666667
1 -0.0713426 5.35711 0.0708333
1 -0.0713426 8.07134 0.0791667
1 2.64289 5.35711 0.0791667
1 2.64289 8.07134 0.0708333
1 4 4 0.0666667
1 4 6.71423 0.075
1 6.71423 4 0.075
1 6.71423 6.71423 0.0666667
1 5.35711 5.35711 0.0708333
1 5.35711 8.07134 0.0791667
1 8.07134 5.35711 0.0791667
1 8.07134 8.07134 0.0708333
1 9.42846 9.42846 0.0833333
1 9.42846 1.28577 0.0916667
1 1.28577 9.42846 0.0916667
1 1.28577 1.28577 0.0833333
1 -0.0713426 -0.0713426 0.0875
1 -0.0713426 2.64289 0.0958333
1 2.64289 -0.0713426 0.0958333
1 2.64289 2.64289 0.0875
1 4 9.42846 0.0833333
1 4 1.28577 0.0916667
1 6.71423 9.42846 0.0916667
1 6.71423 1.28577 0.0833333
1 5.35711 -0.0713426 0.0875
1 5.35711 2.64289 0.0958333
1 8.07134 -0.0713426 0.0958333
1 8.07134 2.64289 0.0875
1 9.42846 4 0.0833333
1 9.42846 6.71423 0.0916667
1 1.28577 4 0.0916667
1 1.28577 6.71423 0.0833333
1 -0.0713426 5.35711 0.0875
1 -0.0713426 8.07134 0.0958333
1 2.64289 5.35711 0.0958333
1 2.64289 8.07134 0.0875
1 4 4 0.0833333
1 4 6.71423 0.0916667
1 6.71423 4 0.0916667
1 6.71423 6.71423 0.0833333
1 5.35711 5.35711 0.0875
1 5.35711 8.07134 0.0958333
1 8.07134 5.35711 0.0958333
1 8.07134 8.07134 0.0875
