192
Atoms. Timestep: 0
1 0 0 0
1 0 2 2
1 2 0 2
1 2 2 0
1 1 1 1
1 1 3 3
1 3 1 3
1 3 3 1
1 4 0 0
1 4 2 2
1 6 0 2
1 6 2 0
1 5 1 1
1 5 3 3
1 7 1 3
1 7 3 1
1 0 4 0
1 0 6 2
1 2 4 2
1 2 6 0
1 1 5 1
1 1 7 3
1 3 5 3
1 3 7 1
1 4 4 0
1 4 6 2
1 6 4 2
1 6 6 0
1 5 5 1
1 5 7 3
1 7 5 3
1 7 7 1
1 0 0 4
1 0 2 6
1 2 0 6
1 2 2 4
1 1 1 5
1 1 3 7
1 3 1 7
1 3 3 5
1 4 0 4
1 4 2 6
1 6 0 6
1 6 2 4
1 5 1 5
1 5 3 7
1 7 1 7
1 7 3 5
1 0 4 4
1 0 6 6
1 2 4 6
1 2 6 4
1 1 5 5
1 1 7 7
1 3 5 7
1 3 7 5
1 4 4 4
1 4 6 6
1 6 4 6
1 6 6 4
1 5 5 5
1 5 7 7
1 7 5 7
1 7 7 5
1 0 0 8
1 0 2 10
1 2 0 10
1 2 2 8
1 1 1 9
1 1 3 11
1 3 1 11
1 3 3 9
1 4 0 8
1 4 2 10
1 6 0 10
1 6 2 8
1 5 1 9
1 5 3 11
1 7 1 11
1 7 3 9
1 0 4 8
1 0 6 10
1 2 4 10
1 2 6 8
1 1 5 9
1 1 7 11
1 3 5 11
1 3 7 9
1 4 4 8
1 4 6 10
1 6 4 10
1 6 6 8
1 5 5 9
1 5 7 11
1 7 5 11
1 7 7 9
1 0 0 12
1 0 2 14
1 2 0 14
1 2 2 12
1 1 1 13
1 1 3 15
1 3 1 15
1 3 3 13
1 4 0 12
1 4 2 14
1 6 0 14
1 6 2 12
1 5 1 13
1 5 3 15
1 7 1 15
1 7 3 13
1 0 4 12
1 0 6 14
1 2 4 14
1 2 6 12
1 1 5 13
1 1 7 15
1 3 5 15
1 3 7 13
1 4 4 12
1 4 6 14
1 6 4 14
1 6 6 12
1 5 5 13
1 5 7 15
1 7 5 15
1 7 7 13
1 0 0 16
1 0 2 18
1 2 0 18
1 2 2 16
1 1 1 17
1 1 3 19
1 3 1 19
1 3 3 17
1 4 0 16
1 4 2 18
1 6 0 18
1 6 2 16
1 5 1 17
1 5 3 19
1 7 1 19
1 7 3 17
1 0 4 16
1 0 6 18
1 2 4 18
1 2 6 16
1 1 5 17
1 1 7 19
1 3 5 19
1 3 7 17
1 4 4 16
1 4 6 18
1 6 4 18
1 6 6 16
1 5 5 17
1 5 7 19
1 7 5 19
1 7 7 17
1 0 0 20
1 0 2 22
1 2 0 22
1 2 2 20
1 1 1 21
1 1 3 23
1 3 1 23
1 3 3 21
1 4 0 20
1 4 2 22
1 6 0 22
1 6 2 20
1 5 1 21
1 5 3 23
1 7 1 23
1 7 3 21
1 0 4 20
1 0 6 22
1 2 4 22
1 2 6 20
1 1 5 21
1 1 7 23
1 3 5 23
1 3 7 21
1 4 4 20
1 4 6 22
1 6 4 22
1 6 6 20
1 5 5 21
1 5 7 23
1 7 5 23
1 7 7 21
192
Atoms. Timestep: 10
1 -0.004 -0.004 -0.012
1 -0.004 1.998 1.99
1 1.998 -0.004 1.99
1 1.998 1.998 -0.012
1 0.997 0.997 0.989
1 0.997 2.999 2.991
1 2.999 0.997 2.991
1 2.999 2.999 0.989
1 4 -0.004 -0.012
1 4 1.998 1.99
1 6.002 -0.004 1.99
1 6.002 1.998 -0.012
1 5.001 0.997 0.989
1 5.001 2.999 2.991
1 7.003 0.997 2.991
1 7.003 2.999 0.989
1 -0.004 4 -0.012
1 -0.004 6.002 1.99
1 1.998 4 1.99
1 1.998 6.002 -0.012
1 0.997 5.001 0.989
1 0.997 7.003 2.991
1 2.999 5.001 2.991
1 2.999 7.003 0.989
1 4 4 -0.012
1 4 6.002 1.99
1 6.002 4 1.99
1 6.002 6.002 -0.012
1 5.001 5.001 0.989
1 5.001 7.003 2.991
1 7.003 5.001 2.991
1 7.003 7.003 0.989
1 -0.004 -0.004 3.992
1 -0.004 1.998 5.994
1 1.998 -0.004 5.994
1 1.998 1.998 3.992
1 0.997 0.997 4.993
1 0.997 2.999 6.995
1 2.999 0.997 6.995
1 2.999 2.999 4.993
1 4 -0.004 3.992
1 4 1.998 5.994
1 6.002 -0.004 5.994
1 6.002 1.998 3.992
1 5.001 0.997 4.993
1 5.001 2.999 6.995
1 7.003 0.997 6.995
1 7.003 2.999 4.993
1 -0.004 4 3.992
1 -0.004 6.002 5.994
1 1.998 4 5.994
1 1.998 6.002 3.992
1 0.997 5.001 4.993
1 0.997 7.003 6.995
1 2.999 5.001 6.995
1 2.999 7.003 4.993
1 4 4 3.992
1 4 6.002 5.994
1 6.002 4 5.994
1 6.002 6.002 3.992
1 5.001 5.001 4.993
1 5.001 7.003 6.995
1 7.003 5.001 6.995
1 7.003 7.003 4.993
1 -0.004 -0.004 7.996
1 -0.004 1.998 9.998
1 1.998 -0.004 9.998
1 1.998 1.998 7.996
1 0.997 0.997 8.997
1 0.997 2.999 10.999
1 2.999 0.997 10.999
1 2.999 2.999 8.997
1 4 -0.004 7.996
1 4 1.998 9.998
1 6.002 -0.004 9.998
1 6.002 1.998 7.996
1 5.001 0.997 8.997
1 5.001 2.999 10.999
1 7.003 0.997 10.999
1 7.003 2.999 8.997
1 -0.004 4 7.996
1 -0.004 6.002 9.998
1 1.998 4 9.998
1 1.998 6.002 7.996
1 0.997 5.001 8.997
1 0.997 7.003 10.999
1 2.999 5.001 10.999
1 2.999 7.003 8.997
1 4 4 7.996
1 4 6.002 9.998
1 6.002 4 9.998
1 6.002 6.002 7.996
1 5.001 5.001 8.997
1 5.001 7.003 10.999
1 7.003 5.001 10.999
1 7.003 7.003 8.997
1 -0.004 -0.004 12
1 -0.004 1.998 14.002
1 1.998 -0.004 14.002
1 1.998 1.998 12
1 0.997 0.997 13.001
1 0.997 2.999 15.003
1 2.999 0.997 15.003
1 2.999 2.999 13.001
1 4 -0.004 12
1 4 1.998 14.002
1 6.002 -0.004 14.002
1 6.002 1.998 12
1 5.001 0.997 13.001
1 5.001 2.999 15.003
1 7.003 0.997 15.003
1 7.003 2.999 13.001
1 -0.004 4 12
1 -0.004 6.002 14.002
1 1.998 4 14.002
1 1.998 6.002 12
1 0.997 5.001 13.001
1 0.997 7.003 15.003
1 2.999 5.001 15.003
1 2.999 7.003 13.001
1 4 4 12
1 4 6.002 14.002
1 6.002 4 14.002
1 6.002 6.002 12
1 5.001 5.001 13.001
1 5.001 7.003 15.003
1 7.003 5.001 15.003
1 7.003 7.003 13.001
1 -0.004 -0.004 16.004
1 -0.004 1.998 18.006
1 1.998 -0.004 18.006
1 1.998 1.998 16.004
1 0.997 0.997 17.005
1 0.997 2.999 19.007
1 2.999 0.997 19.007
1 2.999 2.999 17.005
1 4 -0.004 16.004
1 4 1.998 18.006
1 6.002 -0.004 18.006
1 6.002 1.998 16.004
1 5.001 0.997 17.005
1 5.001 2.999 19.007
1 7.003 0.997 19.007
1 7.003 2.999 17.005
1 -0.004 4 16.004
1 -0.004 6.002 18.006
1 1.998 4 18.006
1 1.998 6.002 16.004
1 0.997 5.001 17.005
1 0.997 7.003 19.007
1 2.999 5.001 19.007
1 2.999 7.003 17.005
1 4 4 16.004
1 4 6.002 18.006
1 6.002 4 18.006
1 6.002 6.002 16.004
1 5.001 5.001 17.005
1 5.001 7.003 19.007
1 7.003 5.001 19.007
1 7.003 7.003 17.005
1 -0.004 -0.004 20.008
1 -0.004 1.998 22.01
1 1.998 -0.004 22.01
1 1.998 1.998 20.008
1 0.997 0.997 21.009
1 0.997 2.999 23.011
1 2.999 0.997 23.011
1 2.999 2.999 21.009
1 4 -0.004 20.008
1 4 1.998 22.01
1 6.002 -0.004 22.01
1 6.002 1.998 20.008
1 5.001 0.997 21.009
1 5.001 2.999 23.011
1 7.003 0.997 23.011
1 7.003 2.999 21.009
1 -0.004 4 20.008
1 -0.004 6.002 22.01
1 1.998 4 22.01
1 1.998 6.002 20.008
1 0.997 5.001 21.009
1 0.997 7.003 23.011
1 2.999 5.001 23.011
1 2.999 7.003 21.009
1 4 4 20.008
1 4 6.002 22.01
1 6.002 4 22.01
1 6.002 6.002 20.008
1 5.001 5.001 21.009
1 5.001 7.003 23.011
1 7.003 5.001 23.011
1 7.003 7.003 21.009
192
Atoms. Timestep: 20
1 -0.008 -0.008 -0.024
1 -0.008 1.996 1.98
1 1.996 -0.008 1.98
1 1.996 1.996 -0.024
1 0.994 0.994 0.978
1 0.994 2.998 2.982
1 2.998 0.994 2.982
1 2.998 2.998 0.978
1 4 -0.008 -0.024
1 4 1.996 1.98
1 6.004 -0.008 1.98
1 6.004 1.996 -0.024
1 5.002 0.994 0.978
1 5.002 2.998 2.982
1 7.006 0.994 2.982
1 7.006 2.998 0.978
1 -0.008 4 -0.024
1 -0.008 6.004 1.98
1 1.996 4 1.98
1 1.996 6.004 -0.024
1 0.994 5.002 0.978
1 0.994 7.006 2.982
1 2.998 5.002 2.982
1 2.998 7.006 0.978
1 4 4 -0.024
1 4 6.004 1.98
1 6.004 4 1.98
1 6.004 6.004 -0.024
1 5.002 5.002 0.978
1 5.002 7.006 2.982
1 7.006 5.002 2.982
1 7.006 7.006 0.978
1 -0.008 -0.008 3.984
1 -0.008 1.996 5.988
1 1.996 -0.008 5.988
1 1.996 1.996 3.984
1 0.994 0.994 4.986
1 0.994 2.998 6.99
1 2.998 0.994 6.99
1 2.998 2.998 4.986
1 4 -0.008 3.984
1 4 1.996 5.988
1 6.004 -0.008 5.988
1 6.004 1.996 3.984
1 5.002 0.994 4.986
1 5.002 2.998 6.99
1 7.006 0.994 6.99
1 7.006 2.998 4.986
1 -0.008 4 3.984
1 -0.008 6.004 5.988
1 1.996 4 5.988
1 1.996 6.004 3.984
1 0.994 5.002 4.986
1 0.994 7.006 6.99
1 2.998 5.002 6.99
1 2.998 7.006 4.986
1 4 4 3.984
1 4 6.004 5.988
1 6.004 4 5.988
1 6.004 6.004 3.984
1 5.002 5.002 4.986
1 5.002 7.006 6.99
1 7.006 5.002 6.99
1 7.006 7.006 4.986
1 -0.008 -0.008 7.992
1 -0.008 1.996 9.996
1 1.996 -0.008 9.996
1 1.996 1.996 7.992
1 0.994 0.994 8.994
1 0.994 2.998 10.998
1 2.998 0.994 10.998
1 2.998 2.998 8.994
1 4 -0.008 7.992
1 4 1.996 9.996
1 6.004 -0.008 9.996
1 6.004 1.996 7.992
1 5.002 0.994 8.994
1 5.002 2.998 10.998
1 7.006 0.994 10.998
1 7.006 2.998 8.994
1 -0.008 4 7.992
1 -0.008 6.004 9.996
1 1.996 4 9.996
1 1.996 6.004 7.992
1 0.994 5.002 8.994
1 0.994 7.006 10.998
1 2.998 5.002 10.998
1 2.998 7.006 8.994
1 4 4 7.992
1 4 6.004 9.996
1 6.004 4 9.996
1 6.004 6.004 7.992
1 5.002 5.002 8.994
1 5.002 7.006 10.998
1 7.006 5.002 10.998
1 7.006 7.006 8.994
1 -0.008 -0.008 12
1 -0.008 1.996 14.004
1 1.996 -0.008 14.004
1 1.996 1.996 12
1 0.994 0.994 13.002
1 0.994 2.998 15.006
1 2.998 0.994 15.006
1 2.998 2.998 13.002
1 4 -0.008 12
1 4 1.996 14.004
1 6.004 -0.008 14.004
1 6.004 1.996 12
1 5.002 0.994 13.002
1 5.002 2.998 15.006
1 7.006 0.994 15.006
1 7.006 2.998 13.002
1 -0.008 4 12
1 -0.008 6.004 14.004
1 1.996 4 14.004
1 1.996 6.004 12
1 0.994 5.002 13.002
1 0.994 7.006 15.006
1 2.998 5.002 15.006
1 2.998 7.006 13.002
1 4 4 12
1 4 6.004 14.004
1 6.004 4 14.004
1 6.004 6.004 12
1 5.002 5.002 13.002
1 5.002 7.006 15.006
1 7.006 5.002 15.006
1 7.006 7.006 13.002
1 -0.008 -0.008 16.008
1 -0.008 1.996 18.012
1 1.996 -0.008 18.012
1 1.996 1.996 16.008
1 0.994 0.994 17.01
1 0.994 2.998 19.014
1 2.998 0.994 19.014
1 2.998 2.998 17.01
1 4 -0.008 16.008
1 4 1.996 18.012
1 6.004 -0.008 18.012
1 6.004 1.996 16.008
1 5.002 0.994 17.01
1 5.002 2.998 19.014
1 7.006 0.994 19.014
1 7.006 2.998 17.01
1 -0.008 4 16.008
1 -0.008 6.004 18.012
1 1.996 4 18.012
1 1.996 6.004 16.008
1 0.994 5.002 17.01
1 0.994 7.006 19.014
1 2.998 5.002 19.014
1 2.998 7.006 17.01
1 4 4 16.008
1 4 6.004 18.012
1 6.004 4 18.012
1 6.004 6.004 16.008
1 5.002 5.002 17.01
1 5.002 7.006 19.014
1 7.006 5.002 19.014
1 7.006 7.006 17.01
1 -0.008 -0.008 20.016
1 -0.008 1.996 22.02
1 1.996 -0.008 22.02
1 1.996 1.996 20.016
1 0.994 0.994 21.018
1 0.994 2.998 23.022
1 2.998 0.994 23.022
1 2.998 2.998 21.018
1 4 -0.008 20.016
1 4 1.996 22.02
1 6.004 -0.008 22.02
1 6.004 1.996 20.016
1 5.002 0.994 21.018
1 5.002 2.998 23.022
1 7.006 0.994 23.022
1 7.006 2.998 21.018
1 -0.008 4 20.016
1 -0.008 6.004 22.02
1 1.996 4 22.02
1 1.996 6.004 20.016
1 0.994 5.002 21.018
1 0.994 7.006 23.022
1 2.998 5.002 23.022
1 2.998 7.006 21.018
1 4 4 20.016
1 4 6.004 22.02
1 6.004 4 22.02
1 6.004 6.004 20.016
1 5.002 5.002 21.018
1 5.002 7.006 23.022
1 7.006 5.002 23.022
1 7.006 7.006 21.018
192
Atoms. Timestep: 30
1 -0.012 -0.012 -0.036
1 -0.012 1.994 1.97
1 1.994 -0.012 1.97
1 1.994 1.994 -0.036
1 0.991 0.991 0.967
1 0.991 2.997 2.973
1 2.997 0.991 2.973
1 2.997 2.997 0.967
1 4 -0.012 -0.036
1 4 1.994 1.97
1 6.006 -0.012 1.97
1 6.006 1.994 -0.036
1 5.003 0.991 0.967
1 5.003 2.997 2.973
1 7.009 0.991 2.973
1 7.009 2.997 0.967
1 -0.012 4 -0.036
1 -0.012 6.006 1.97
1 1.994 4 1.97
1 1.994 6.006 -0.036
1 0.991 5.003 0.967
1 0.991 7.009 2.973
1 2.997 5.003 2.973
1 2.997 7.009 0.967
1 4 4 -0.036
1 4 6.006 1.97
1 6.006 4 1.97
1 6.006 6.006 -0.036
1 5.003 5.003 0.967
1 5.003 7.009 2.973
1 7.009 5.003 2.973
1 7.009 7.009 0.967
1 -0.012 -0.012 3.976
1 -0.012 1.994 5.982
1 1.994 -0.012 5.982
1 1.994 1.994 3.976
1 0.991 0.991 4.979
1 0.991 2.997 6.985
1 2.997 0.991 6.985
1 2.997 2.997 4.979
1 4 -0.012 3.976
1 4 1.994 5.982
1 6.006 -0.012 5.982
1 6.006 1.994 3.976
1 5.003 0.991 4.979
1 5.003 2.997 6.985
1 7.009 0.991 6.985
1 7.009 2.997 4.979
1 -0.012 4 3.976
1 -0.012 6.006 5.982
1 1.994 4 5.982
1 1.994 6.006 3.976
1 0.991 5.003 4.979
1 0.991 7.009 6.985
1 2.997 5.003 6.985
1 2.997 7.009 4.979
1 4 4 3.976
1 4 6.006 5.982
1 6.006 4 5.982
1 6.006 6.006 3.976
1 5.003 5.003 4.979
1 5.003 7.009 6.985
1 7.009 5.003 6.985
1 7.009 7.009 4.979
1 -0.012 -0.012 7.988
1 -0.012 1.994 9.994
1 1.994 -0.012 9.994
1 1.994 1.994 7.988
1 0.991 0.991 8.991
1 0.991 2.997 10.997
1 2.997 0.991 10.997
1 2.997 2.997 8.991
1 4 -0.012 7.988
1 4 1.994 9.994
1 6.006 -0.012 9.994
1 6.006 1.994 7.988
1 5.003 0.991 8.991
1 5.003 2.997 10.997
1 7.009 0.991 10.997
1 7.009 2.997 8.991
1 -0.012 4 7.988
1 -0.012 6.006 9.994
1 1.994 4 9.994
1 1.994 6.006 7.988
1 0.991 5.003 8.991
1 0.991 7.009 10.997
1 2.997 5.003 10.997
1 2.997 7.009 8.991
1 4 4 7.988
1 4 6.006 9.994
1 6.006 4 9.994
1 6.006 6.006 7.988
1 5.003 5.003 8.991
1 5.003 7.009 10.997
1 7.009 5.003 10.997
1 7.009 7.009 8.991
1 -0.012 -0.012 12
1 -0.012 1.994 14.006
1 1.994 -0.012 14.006
1 1.994 1.994 12
1 0.991 0.991 13.003
1 0.991 2.997 15.009
1 2.997 0.991 15.009
1 2.997 2.997 13.003
1 4 -0.012 12
1 4 1.994 14.006
1 6.006 -0.012 14.006
1 6.006 1.994 12
1 5.003 0.991 13.003
1 5.003 2.997 15.009
1 7.009 0.991 15.009
1 7.009 2.997 13.003
1 -0.012 4 12
1 -0.012 6.006 14.006
1 1.994 4 14.006
1 1.994 6.006 12
1 0.991 5.003 13.003
1 0.991 7.009 15.009
1 2.997 5.003 15.009
1 2.997 7.009 13.003
1 4 4 12
1 4 6.006 14.006
1 6.006 4 14.006
1 6.006 6.006 12
1 5.003 5.003 13.003
1 5.003 7.009 15.009
1 7.009 5.003 15.009
1 7.009 7.009 13.003
1 -0.012 -0.012 16.012
1 -0.012 1.994 18.018
1 1.994 -0.012 18.018
1 1.994 1.994 16.012
1 0.991 0.991 17.015
1 0.991 2.997 19.021
1 2.997 0.991 19.021
1 2.997 2.997 17.015
1 4 -0.012 16.012
1 4 1.994 18.018
1 6.006 -0.012 18.018
1 6.006 1.994 16.012
1 5.003 0.991 17.015
1 5.003 2.997 19.021
1 7.009 0.991 19.021
1 7.009 2.997 17.015
1 -0.012 4 16.012
1 -0.012 6.006 18.018
1 1.994 4 18.018
1 1.994 6.006 16.012
1 0.991 5.003 17.015
1 0.991 7.009 19.021
1 2.997 5.003 19.021
1 2.997 7.009 17.015
1 4 4 16.012
1 4 6.006 18.018
1 6.006 4 18.018
1 6.006 6.006 16.012
1 5.003 5.003 17.015
1 5.003 7.009 19.021
1 7.009 5.003 19.021
1 7.009 7.009 17.015
1 -0.012 -0.012 20.024
1 -0.012 1.994 22.03
1 1.994 -0.012 22.03
1 1.994 1.994 20.024
1 0.991 0.991 21.027
1 0.991 2.997 23.033
1 2.997 0.991 23.033
1 2.997 2.997 21.027
1 4 -0.012 20.024
1 4 1.994 22.03
1 6.006 -0.012 22.03
1 6.006 1.994 20.024
1 5.003 0.991 21.027
1 5.003 2.997 23.033
1 7.009 0.991 23.033
1 7.009 2.997 21.027
1 -0.012 4 20.024
1 -0.012 6.006 22.03
1 1.994 4 22.03
1 1.994 6.006 20.024
1 0.991 5.003 21.027
1 0.991 7.009 23.033
1 2.997 5.003 23.033
1 2.997 7.009 21.027
1 4 4 20.024
1 4 6.006 22.03
1 6.006 4 22.03
1 6.006 6.006 20.024
1 5.003 5.003 21.027
1 5.003 7.009 23.033
1 7.009 5.003 23.033
1 7.009 7.009 21.027
192
Atoms. Timestep: 40
1 -0.016 -0.016 -0.048
1 -0.016 1.992 1.96
1 1.992 -0.016 1.96
1 1.992 1.992 -0.048
1 0.988 0.988 0.956
1 0.988 2.996 2.964
1 2.996 0.988 2.964
1 2.996 2.996 0.956
1 4 -0.016 -0.048
1 4 1.992 1.96
1 6.008 -0.016 1.96
1 6.008 1.992 -0.048
1 5.004 0.988 0.956
1 5.004 2.996 2.964
1 7.012 0.988 2.964
1 7.012 2.996 0.956
1 -0.016 4 -0.048
1 -0.016 6.008 1.96
1 1.992 4 1.96
1 1.992 6.008 -0.048
1 0.988 5.004 0.956
1 0.988 7.012 2.964
1 2.996 5.004 2.964
1 2.996 7.012 0.956
1 4 4 -0.048
1 4 6.008 1.96
1 6.008 4 1.96
1 6.008 6.008 -0.048
1 5.004 5.004 0.956
1 5.004 7.012 2.964
1 7.012 5.004 2.964
1 7.012 7.012 0.956
1 -0.016 -0.016 3.968
1 -0.016 1.992 5.976
1 1.992 -0.016 5.976
1 1.992 1.992 3.968
1 0.988 0.988 4.972
1 0.988 2.996 6.98
1 2.996 0.988 6.98
1 2.996 2.996 4.972
1 4 -0.016 3.968
1 4 1.992 5.976
1 6.008 -0.016 5.976
1 6.008 1.992 3.968
1 5.004 0.988 4.972
1 5.004 2.996 6.98
1 7.012 0.988 6.98
1 7.012 2.996 4.972
1 -0.016 4 3.968
1 -0.016 6.008 5.976
1 1.992 4 5.976
1 1.992 6.008 3.968
1 0.988 5.004 4.972
1 0.988 7.012 6.98
1 2.996 5.004 6.98
1 2.996 7.012 4.972
1 4 4 3.968
1 4 6.008 5.976
1 6.008 4 5.976
1 6.008 6.008 3.968
1 5.004 5.004 4.972
1 5.004 7.012 6.98
1 7.012 5.004 6.98
1 7.012 7.012 4.972
1 -0.016 -0.016 7.984
1 -0.016 1.992 9.992
1 1.992 -0.016 9.992
1 1.992 1.992 7.984
1 0.988 0.988 8.988
1 0.988 2.996 10.996
1 2.996 0.988 10.996
1 2.996 2.996 8.988
1 4 -0.016 7.984
1 4 1.992 9.992
1 6.008 -0.016 9.992
1 6.008 1.992 7.984
1 5.004 0.988 8.988
1 5.004 2.996 10.996
1 7.012 0.988 10.996
1 7.012 2.996 8.988
1 -0.016 4 7.984
1 -0.016 6.008 9.992
1 1.992 4 9.992
1 1.992 6.008 7.984
1 0.988 5.004 8.988
1 0.988 7.012 10.996
1 2.996 5.004 10.996
1 2.996 7.012 8.988
1 4 4 7.984
1 4 6.008 9.992
1 6.008 4 9.992
1 6.008 6.008 7.984
1 5.004 5.004 8.988
1 5.004 7.012 10.996
1 7.012 5.004 10.996
1 7.012 7.012 8.988
1 -0.016 -0.016 12
1 -0.016 1.992 14.008
1 1.992 -0.016 14.008
1 1.992 1.992 12
1 0.988 0.988 13.004
1 0.988 2.996 15.012
1 2.996 0.988 15.012
1 2.996 2.996 13.004
1 4 -0.016 12
1 4 1.992 14.008
1 6.008 -0.016 14.008
1 6.008 1.992 12
1 5.004 0.988 13.004
1 5.004 2.996 15.012
1 7.012 0.988 15.012
1 7.012 2.996 13.004
1 -0.016 4 12
1 -0.016 6.008 14.008
1 1.992 4 14.008
1 1.992 6.008 12
1 0.988 5.004 13.004
1 0.988 7.012 15.012
1 2.996 5.004 15.012
1 2.996 7.012 13.004
1 4 4 12
1 4 6.008 14.008
1 6.008 4 14.008
1 6.008 6.008 12
1 5.004 5.004 13.004
1 5.004 7.012 15.012
1 7.012 5.004 15.012
1 7.012 7.012 13.004
1 -0.016 -0.016 16.016
1 -0.016 1.992 18.024
1 1.992 -0.016 18.024
1 1.992 1.992 16.016
1 0.988 0.988 17.02
1 0.988 2.996 19.028
1 2.996 0.988 19.028
1 2.996 2.996 17.02
1 4 -0.016 16.016
1 4 1.992 18.024
1 6.008 -0.016 18.024
1 6.008 1.992 16.016
1 5.004 0.988 17.02
1 5.004 2.996 19.028
1 7.012 0.988 19.028
1 7.012 2.996 17.02
1 -0.016 4 16.016
1 -0.016 6.008 18.024
1 1.992 4 18.024
1 1.992 6.008 16.016
1 0.988 5.004 17.02
1 0.988 7.012 19.028
1 2.996 5.004 19.028
1 2.996 7.012 17.02
1 4 4 16.016
1 4 6.008 18.024
1 6.008 4 18.024
1 6.008 6.008 16.016
1 5.004 5.004 17.02
1 5.004 7.012 19.028
1 7.012 5.004 19.028
1 7.012 7.012 17.02
1 -0.016 -0.016 20.032
1 -0.016 1.992 22.04
1 1.992 -0.016 22.04
1 1.992 1.992 20.032
1 0.988 0.988 21.036
1 0.988 2.996 23.044
1 2.996 0.988 23.044
1 2.996 2.996 21.036
1 4 -0.016 20.032
1 4 1.992 22.04
1 6.008 -0.016 22.04
1 6.008 1.992 20.032
1 5.004 0.988 21.036
1 5.004 2.996 23.044
1 7.012 0.988 23.044
1 7.012 2.996 21.036
1 -0.016 4 20.032
1 -0.016 6.008 22.04
1 1.992 4 22.04
1 1.992 6.008 20.032
1 0.988 5.004 21.036
1 0.988 7.012 23.044
1 2.996 5.004 23.044
1 2.996 7.012 21.036
1 4 4 20.032
1 4 6.008 22.04
1 6.008 4 22.04
1 6.008 6.008 20.032
1 5.004 5.004 21.036
1 5.004 7.012 23.044
1 7.012 5.004 23.044
1 7.012 7.012 21.036
192
Atoms. Timestep: 50
1 -0.02 -0.02 -0.06
1 -0.02 1.99 1.95
1 1.99 -0.02 1.95
1 1.99 1.99 -0.06
1 0.985 0.985 0.945
1 0.985 2.995 2.955
1 2.995 0.985 2.955
1 2.995 2.995 0.945
1 4 -0.02 -0.06
1 4 1.99 1.95
1 6.01 -0.02 1.95
1 6.01 1.99 -0.06
1 5.005 0.985 0.945
1 5.005 2.995 2.955
1 7.015 0.985 2.955
1 7.015 2.995 0.945
1 -0.02 4 -0.06
1 -0.02 6.01 1.95
1 1.99 4 1.95
1 1.99 6.01 -0.06
1 0.985 5.005 0.945
1 0.985 7.015 2.955
1 2.995 5.005 2.955
1 2.995 7.015 0.945
1 4 4 -0.06
1 4 6.01 1.95
1 6.01 4 1.95
1 6.01 6.01 -0.06
1 5.005 5.005 0.945
1 5.005 7.015 2.955
1 7.015 5.005 2.955
1 7.015 7.015 0.945
1 -0.02 -0.02 3.96
1 -0.02 1.99 5.97
1 1.99 -0.02 5.97
1 1.99 1.99 3.96
1 0.985 0.985 4.965
1 0.985 2.995 6.975
1 2.995 0.985 6.975
1 2.995 2.995 4.965
1 4 -0.02 3.96
1 4 1.99 5.97
1 6.01 -0.02 5.97
1 6.01 1.99 3.96
1 5.005 0.985 4.965
1 5.005 2.995 6.975
1 7.015 0.985 6.975
1 7.015 2.995 4.965
1 -0.02 4 3.96
1 -0.02 6.01 5.97
1 1.99 4 5.97
1 1.99 6.01 3.96
1 0.985 5.005 4.965
1 0.985 7.015 6.975
1 2.995 5.005 6.975
1 2.995 7.015 4.965
1 4 4 3.96
1 4 6.01 5.97
1 6.01 4 5.97
1 6.01 6.01 3.96
1 5.005 5.005 4.965
1 5.005 7.015 6.975
1 7.015 5.005 6.975
1 7.015 7.015 4.965
1 -0.02 -0.02 7.98
1 -0.02 1.99 9.99
1 1.99 -0.02 9.99
1 1.99 1.99 7.98
1 0.985 0.985 8.985
1 0.985 2.995 10.995
1 2.995 0.985 10.995
1 2.995 2.995 8.985
1 4 -0.02 7.98
1 4 1.99 9.99
1 6.01 -0.02 9.99
1 6.01 1.99 7.98
1 5.005 0.985 8.985
1 5.005 2.995 10.995
1 7.015 0.985 10.995
1 7.015 2.995 8.985
1 -0.02 4 7.98
1 -0.02 6.01 9.99
1 1.99 4 9.99
1 1.99 6.01 7.98
1 0.985 5.005 8.985
1 0.985 7.015 10.995
1 2.995 5.005 10.995
1 2.995 7.015 8.985
1 4 4 7.98
1 4 6.01 9.99
1 6.01 4 9.99
1 6.01 6.01 7.98
1 5.005 5.005 8.985
1 5.005 7.015 10.995
1 7.015 5.005 10.995
1 7.015 7.015 8.985
1 -0.02 -0.02 12
1 -0.02 1.99 14.01
1 1.99 -0.02 14.01
1 1.99 1.99 12
1 0.985 0.985 13.005
1 0.985 2.995 15.015
1 2.995 0.985 15.015
1 2.995 2.995 13.005
1 4 -0.02 12
1 4 1.99 14.01
1 6.01 -0.02 14.01
1 6.01 1.99 12
1 5.005 0.985 13.005
1 5.005 2.995 15.015
1 7.015 0.985 15.015
1 7.015 2.995 13.005
1 -0.02 4 12
1 -0.02 6.01 14.01
1 1.99 4 14.01
1 1.99 6.01 12
1 0.985 5.005 13.005
1 0.985 7.015 15.015
1 2.995 5.005 15.015
1 2.995 7.015 13.005
1 4 4 12
1 4 6.01 14.01
1 6.01 4 14.01
1 6.01 6.01 12
1 5.005 5.005 13.005
1 5.005 7.015 15.015
1 7.015 5.005 15.015
1 7.015 7.015 13.005
1 -0.02 -0.02 16.02
1 -0.02 1.99 18.03
1 1.99 -0.02 18.03
1 1.99 1.99 16.02
1 0.985 0.985 17.025
1 0.985 2.995 19.035
1 2.995 0.985 19.035
1 2.995 2.995 17.025
1 4 -0.02 16.02
1 4 1.99 18.03
1 6.01 -0.02 18.03
1 6.01 1.99 16.02
1 5.005 0.985 17.025
1 5.005 2.995 19.035
1 7.015 0.985 19.035
1 7.015 2.995 17.025
1 -0.02 4 16.02
1 -0.02 6.01 18.03
1 1.99 4 18.03
1 1.99 6.01 16.02
1 0.985 5.005 17.025
1 0.985 7.015 19.035
1 2.995 5.005 19.035
1 2.995 7.015 17.025
1 4 4 16.02
1 4 6.01 18.03
1 6.01 4 18.03
1 6.01 6.01 16.02
1 5.005 5.005 17.025
1 5.005 7.015 19.035
1 7.015 5.005 19.035
1 7.015 7.015 17.025
1 -0.02 -0.02 20.04
1 -0.02 1.99 22.05
1 1.99 -0.02 22.05
1 1.99 1.99 20.04
1 0.985 0.985 21.045
1 0.985 2.995 23.055
1 2.995 0.985 23.055
1 2.995 2.995 21.045
1 4 -0.02 20.04
1 4 1.99 22.05
1 6.01 -0.02 22.05
1 6.01 1.99 20.04
1 5.005 0.985 21.045
1 5.005 2.995 23.055
1 7.015 0.985 23.055
1 7.015 2.995 21.045
1 -0.02 4 20.04
1 -0.02 6.01 22.05
1 1.99 4 22.05
1 1.99 6.01 20.04
1 0.985 5.005 21.045
1 0.985 7.015 23.055
1 2.995 5.005 23.055
1 2.995 7.015 21.045
1 4 4 20.04
1 4 6.01 22.05
1 6.01 4 22.05
1 6.01 6.01 20.04
1 5.005 5.005 21.045
1 5.005 7.015 23.055
1 7.015 5.005 23.055
1 7.015 7.015 21.045
192
Atoms. Timestep: 60
1 -0.024 -0.024 -0.072
1 -0.024 1.988 1.94
1 1.988 -0.024 1.94
1 1.988 1.988 -0.072
1 0.982 0.982 0.934
1 0.982 2.994 2.946
1 2.994 0.982 2.946
1 2.994 2.994 0.934
1 4 -0.024 -0.072
1 4 1.988 1.94
1 6.012 -0.024 1.94
1 6.012 1.988 -0.072
1 5.006 0.982 0.934
1 5.006 2.994 2.946
1 7.018 0.982 2.946
1 7.018 2.994 0.934
1 -0.024 4 -0.072
1 -0.024 6.012 1.94
1 1.988 4 1.94
1 1.988 6.012 -0.072
1 0.982 5.006 0.934
1 0.982 7.018 2.946
1 2.994 5.006 2.946
1 2.994 7.018 0.934
1 4 4 -0.072
1 4 6.012 1.94
1 6.012 4 1.94
1 6.012 6.012 -0.072
1 5.006 5.006 0.934
1 5.006 7.018 2.946
1 7.018 5.006 2.946
1 7.018 7.018 0.934
1 -0.024 -0.024 3.952
1 -0.024 1.988 5.964
1 1.988 -0.024 5.964
1 1.988 1.988 3.952
1 0.982 0.982 4.958
1 0.982 2.994 6.97
1 2.994 0.982 6.97
1 2.994 2.994 4.958
1 4 -0.024 3.952
1 4 1.988 5.964
1 6.012 -0.024 5.964
1 6.012 1.988 3.952
1 5.006 0.982 4.958
1 5.006 2.994 6.97
1 7.018 0.982 6.97
1 7.018 2.994 4.958
1 -0.024 4 3.952
1 -0.024 6.012 5.964
1 1.988 4 5.964
1 1.988 6.012 3.952
1 0.982 5.006 4.958
1 0.982 7.018 6.97
1 2.994 5.006 6.97
1 2.994 7.018 4.958
1 4 4 3.952
1 4 6.012 5.964
1 6.012 4 5.964
1 6.012 6.012 3.952
1 5.006 5.006 4.958
1 5.006 7.018 6.97
1 7.018 5.006 6.97
1 7.018 7.018 4.958
1 -0.024 -0.024 7.976
1 -0.024 1.988 9.988
1 1.988 -0.024 9.988
1 1.988 1.988 7.976
1 0.982 0.982 8.982
1 0.982 2.994 10.994
1 2.994 0.982 10.994
1 2.994 2.994 8.982
1 4 -0.024 7.976
1 4 1.988 9.988
1 6.012 -0.024 9.988
1 6.012 1.988 7.976
1 5.006 0.982 8.982
1 5.006 2.994 10.994
1 7.018 0.982 10.994
1 7.018 2.994 8.982
1 -0.024 4 7.976
1 -0.024 6.012 9.988
1 1.988 4 9.988
1 1.988 6.012 7.976
1 0.982 5.006 8.982
1 0.982 7.018 10.994
1 2.994 5.006 10.994
1 2.994 7.018 8.982
1 4 4 7.976
1 4 6.012 9.988
1 6.012 4 9.988
1 6.012 6.012 7.976
1 5.006 5.006 8.982
1 5.006 7.018 10.994
1 7.018 5.006 10.994
1 7.018 7.018 8.982
1 -0.024 -0.024 12
1 -0.024 1.988 14.012
1 1.988 -0.024 14.012
1 1.988 1.988 12
1 0.982 0.982 13.006
1 0.982 2.994 15.018
1 2.994 0.982 15.018
1 2.994 2.994 13.006
1 4 -0.024 12
1 4 1.988 14.012
1 6.012 -0.024 14.012
1 6.012 1.988 12
1 5.006 0.982 13.006
1 5.006 2.994 15.018
1 7.018 0.982 15.018
1 7.018 2.994 13.006
1 -0.024 4 12
1 -0.024 6.012 14.012
1 1.988 4 14.012
1 1.988 6.012 12
1 0.982 5.006 13.006
1 0.982 7.018 15.018
1 2.994 5.006 15.018
1 2.994 7.018 13.006
1 4 4 12
1 4 6.012 14.012
1 6.012 4 14.012
1 6.012 6.012 12
1 5.006 5.006 13.006
1 5.006 7.018 15.018
1 7.018 5.006 15.018
1 7.018 7.018 13.006
1 -0.024 -0.024 16.024
1 -0.024 1.988 18.036
1 1.988 -0.024 18.036
1 1.988 1.988 16.024
1 0.982 0.982 17.03
1 0.982 2.994 19.042
1 2.994 0.982 19.042
1 2.994 2.994 17.03
1 4 -0.024 16.024
1 4 1.988 18.036
1 6.012 -0.024 18.036
1 6.012 1.988 16.024
1 5.006 0.982 17.03
1 5.006 2.994 19.042
1 7.018 0.982 19.042
1 7.018 2.994 17.03
1 -0.024 4 16.024
1 -0.024 6.012 18.036
1 1.988 4 18.036
1 1.988 6.012 16.024
1 0.982 5.006 17.03
1 0.982 7.018 19.042
1 2.994 5.006 19.042
1 2.994 7.018 17.03
1 4 4 16.024
1 4 6.012 18.036
1 6.012 4 18.036
1 6.012 6.012 16.024
1 5.006 5.006 17.03
1 5.006 7.018 19.042
1 7.018 5.006 19.042
1 7.018 7.018 17.03
1 -0.024 -0.024 20.048
1 -0.024 1.988 22.06
1 1.988 -0.024 22.06
1 1.988 1.988 20.048
1 0.982 0.982 21.054
1 0.982 2.994 23.066
1 2.994 0.982 23.066
1 2.994 2.994 21.054
1 4 -0.024 20.048
1 4 1.988 22.06
1 6.012 -0.024 22.06
1 6.012 1.988 20.048
1 5.006 0.982 21.054
1 5.006 2.994 23.066
1 7.018 0.982 23.066
1 7.018 2.994 21.054
1 -0.024 4 20.048
1 -0.024 6.012 22.06
1 1.988 4 22.06
1 1.988 6.012 20.048
1 0.982 5.006 21.054
1 0.982 7.018 23.066
1 2.994 5.006 23.066
1 2.994 7.018 21.054
1 4 4 20.048
1 4 6.012 22.06
1 6.012 4 22.06
1 6.012 6.012 20.048
1 5.006 5.006 21.054
1 5.006 7.018 23.066
1 7.018 5.006 23.066
1 7.018 7.018 21.054
192
Atoms. Timestep: 70
1 -0.028 -0.028 -0.084
1 -0.028 1.986 1.93
1 1.986 -0.028 1.93
1 1.986 1.986 -0.084
1 0.979 0.979 0.923
1 0.979 2.993 2.937
1 2.993 0.979 2.937
1 2.993 2.993 0.923
1 4 -0.028 -0.084
1 4 1.986 1.93
1 6.014 -0.028 1.93
1 6.014 1.986 -0.084
1 5.007 0.979 0.923
1 5.007 2.993 2.937
1 7.021 0.979 2.937
1 7.021 2.993 0.923
1 -0.028 4 -0.084
1 -0.028 6.014 1.93
1 1.986 4 1.93
1 1.986 6.014 -0.084
1 0.979 5.007 0.923
1 0.979 7.021 2.937
1 2.993 5.007 2.937
1 2.993 7.021 0.923
1 4 4 -0.084
1 4 6.014 1.93
1 6.014 4 1.93
1 6.014 6.014 -0.084
1 5.007 5.007 0.923
1 5.007 7.021 2.937
1 7.021 5.007 2.937
1 7.021 7.021 0.923
1 -0.028 -0.028 3.944
1 -0.028 1.986 5.958
1 1.986 -0.028 5.958
1 1.986 1.986 3.944
1 0.979 0.979 4.951
1 0.979 2.993 6.965
1 2.993 0.979 6.965
1 2.993 2.993 4.951
1 4 -0.028 3.944
1 4 1.986 5.958
1 6.014 -0.028 5.958
1 6.014 1.986 3.944
1 5.007 0.979 4.951
1 5.007 2.993 6.965
1 7.021 0.979 6.965
1 7.021 2.993 4.951
1 -0.028 4 3.944
1 -0.028 6.014 5.958
1 1.986 4 5.958
1 1.986 6.014 3.944
1 0.979 5.007 4.951
1 0.979 7.021 6.965
1 2.993 5.007 6.965
1 2.993 7.021 4.951
1 4 4 3.944
1 4 6.014 5.958
1 6.014 4 5.958
1 6.014 6.014 3.944
1 5.007 5.007 4.951
1 5.007 7.021 6.965
1 7.021 5.007 6.965
1 7.021 7.021 4.951
1 -0.028 -0.028 7.972
1 -0.028 1.986 9.986
1 1.986 -0.028 9.986
1 1.986 1.986 7.972
1 0.979 0.979 8.979
1 0.979 2.993 10.993
1 2.993 0.979 10.993
1 2.993 2.993 8.979
1 4 -0.028 7.972
1 4 1.986 9.986
1 6.014 -0.028 9.986
1 6.014 1.986 7.972
1 5.007 0.979 8.979
1 5.007 2.993 10.993
1 7.021 0.979 10.993
1 7.021 2.993 8.979
1 -0.028 4 7.972
1 -0.028 6.014 9.986
1 1.986 4 9.986
1 1.986 6.014 7.972
1 0.979 5.007 8.979
1 0.979 7.021 10.993
1 2.993 5.007 10.993
1 2.993 7.021 8.979
1 4 4 7.972
1 4 6.014 9.986
1 6.014 4 9.986
1 6.014 6.014 7.972
1 5.007 5.007 8.979
1 5.007 7.021 10.993
1 7.021 5.007 10.993
1 7.021 7.021 8.979
1 -0.028 -0.028 12
1 -0.028 1.986 14.014
1 1.986 -0.028 14.014
1 1.986 1.986 12
1 0.979 0.979 13.007
1 0.979 2.993 15.021
1 2.993 0.979 15.021
1 2.993 2.993 13.007
1 4 -0.028 12
1 4 1.986 14.014
1 6.014 -0.028 14.014
1 6.014 1.986 12
1 5.007 0.979 13.007
1 5.007 2.993 15.021
1 7.021 0.979 15.021
1 7.021 2.993 13.007
1 -0.028 4 12
1 -0.028 6.014 14.014
1 1.986 4 14.014
1 1.986 6.014 12
1 0.979 5.007 13.007
1 0.979 7.021 15.021
1 2.993 5.007 15.021
1 2.993 7.021 13.007
1 4 4 12
1 4 6.014 14.014
1 6.014 4 14.014
1 6.014 6.014 12
1 5.007 5.007 13.007
1 5.007 7.021 15.021
1 7.021 5.007 15.021
1 7.021 7.021 13.007
1 -0.028 -0.028 16.028
1 -0.028 1.986 18.042
1 1.986 -0.028 18.042
1 1.986 1.986 16.028
1 0.979 0.979 17.035
1 0.979 2.993 19.049
1 2.993 0.979 19.049
1 2.993 2.993 17.035
1 4 -0.028 16.028
1 4 1.986 18.042
1 6.014 -0.028 18.042
1 6.014 1.986 16.028
1 5.007 0.979 17.035
1 5.007 2.993 19.049
1 7.021 0.979 19.049
1 7.021 2.993 17.035
1 -0.028 4 16.028
1 -0.028 6.014 18.042
1 1.986 4 18.042
1 1.986 6.014 16.028
1 0.979 5.007 17.035
1 0.979 7.021 19.049
1 2.993 5.007 19.049
1 2.993 7.021 17.035
1 4 4 16.028
1 4 6.014 18.042
1 6.014 4 18.042
1 6.014 6.014 16.028
1 5.007 5.007 17.035
1 5.007 7.021 19.049
1 7.021 5.007 19.049
1 7.021 7.021 17.035
1 -0.028 -0.028 20.056
1 -0.028 1.986 22.07
1 1.986 -0.028 22.07
1 1.986 1.986 20.056
1 0.979 0.979 21.063
1 0.979 2.993 23.077
1 2.993 0.979 23.077
1 2.993 2.993 21.063
1 4 -0.028 20.056
1 4 1.986 22.07
1 6.014 -0.028 22.07
1 6.014 1.986 20.056
1 5.007 0.979 21.063
1 5.007 2.993 23.077
1 7.021 0.979 23.077
1 7.021 2.993 21.063
1 -0.028 4 20.056
1 -0.028 6.014 22.07
1 1.986 4 22.07
1 1.986 6.014 20.056
1 0.979 5.007 21.063
1 0.979 7.021 23.077
1 2.993 5.007 23.077
1 2.993 7.021 21.063
1 4 4 20.056
1 4 6.014 22.07
1 6.014 4 22.07
1 6.014 6.014 20.056
1 5.007 5.007 21.063
1 5.007 7.021 23.077
1 7.021 5.007 23.077
1 7.021 7.021 21.063
192
Atoms. Timestep: 80
1 -0.032 -0.032 -0.096
1 -0.032 1.984 1.92
1 1.984 -0.032 1.92
1 1.984 1.984 -0.096
1 0.976 0.976 0.912
1 0.976 2.992 2.928
1 2.992 0.976 2.928
1 2.992 2.992 0.912
1 4 -0.032 -0.096
1 4 1.984 1.92
1 6.016 -0.032 1.92
1 6.016 1.984 -0.096
1 5.008 0.976 0.912
1 5.008 2.992 2.928
1 7.024 0.976 2.928
1 7.024 2.992 0.912
1 -0.032 4 -0.096
1 -0.032 6.016 1.92
1 1.984 4 1.92
1 1.984 6.016 -0.096
1 0.976 5.008 0.912
1 0.976 7.024 2.928
1 2.992 5.008 2.928
1 2.992 7.024 0.912
1 4 4 -0.096
1 4 6.016 1.92
1 6.016 4 1.92
1 6.016 6.016 -0.096
1 5.008 5.008 0.912
1 5.008 7.024 2.928
1 7.024 5.008 2.928
1 7.024 7.024 0.912
1 -0.032 -0.032 3.936
1 -0.032 1.984 5.952
1 1.984 -0.032 5.952
1 1.984 1.984 3.936
1 0.976 0.976 4.944
1 0.976 2.992 6.96
1 2.992 0.976 6.96
1 2.992 2.992 4.944
1 4 -0.032 3.936
1 4 1.984 5.952
1 6.016 -0.032 5.952
1 6.016 1.984 3.936
1 5.008 0.976 4.944
1 5.008 2.992 6.96
1 7.024 0.976 6.96
1 7.024 2.992 4.944
1 -0.032 4 3.936
1 -0.032 6.016 5.952
1 1.984 4 5.952
1 1.984 6.016 3.936
1 0.976 5.008 4.944
1 0.976 7.024 6.96
1 2.992 5.008 6.96
1 2.992 7.024 4.944
1 4 4 3.936
1 4 6.016 5.952
1 6.016 4 5.952
1 6.016 6.016 3.936
1 5.008 5.008 4.944
1 5.008 7.024 6.96
1 7.024 5.008 6.96
1 7.024 7.024 4.944
1 -0.032 -0.032 7.968
1 -0.032 1.984 9.984
1 1.984 -0.032 9.984
1 1.984 1.984 7.968
1 0.976 0.976 8.976
1 0.976 2.992 10.992
1 2.992 0.976 10.992
1 2.992 2.992 8.976
1 4 -0.032 7.968
1 4 1.984 9.984
1 6.016 -0.032 9.984
1 6.016 1.984 7.968
1 5.008 0.976 8.976
1 5.008 2.992 10.992
1 7.024 0.976 10.992
1 7.024 2.992 8.976
1 -0.032 4 7.968
1 -0.032 6.016 9.984
1 1.984 4 9.984
1 1.984 6.016 7.968
1 0.976 5.008 8.976
1 0.976 7.024 10.992
1 2.992 5.008 10.992
1 2.992 7.024 8.976
1 4 4 7.968
1 4 6.016 9.984
1 6.016 4 9.984
1 6.016 6.016 7.968
1 5.008 5.008 8.976
1 5.008 7.024 10.992
1 7.024 5.008 10.992
1 7.024 7.024 8.976
1 -0.032 -0.032 12
1 -0.032 1.984 14.016
1 1.984 -0.032 14.016
1 1.984 1.984 12
1 0.976 0.976 13.008
1 0.976 2.992 15.024
1 2.992 0.976 15.024
1 2.992 2.992 13.008
1 4 -0.032 12
1 4 1.984 14.016
1 6.016 -0.032 14.016